/*--------------------------------*- C++ -*----------------------------------*\
| =========                 |                                                 |
| \\      /  F ield         | OpenFOAM: The Open Source CFD Toolbox           |
|  \\    /   O peration     | Version:  v2106                                 |
|   \\  /    A nd           | Website:  www.openfoam.com                      |
|    \\/     M anipulation  |                                                 |
\*---------------------------------------------------------------------------*/
FoamFile
{
    version     2.0;
    format      ascii;
    arch        "LSB;label=32;scalar=64";
    class       volScalarField;
    location    "1.4";
    object      T;
}
// * * * * * * * * * * * * * * * * * * * * * * * * * * * * * * * * * * * * * //

dimensions      [ 0 0 0 1 0 0 0 ];

internalField   nonuniform List<scalar> 
400
(
1
1
0.428571
0.047619
-1.42603e-15
-1.40969e-15
-5.96674e-16
-9.46709e-17
7.46791e-20
7.46791e-20
7.46794e-20
7.46624e-20
5.75668e-19
5.75467e-19
6.15135e-20
-1.29093e-22
-1.29093e-22
-1.29093e-22
-9.17286e-23
-1.11724e-23
1
1
0.952381
0.515873
0.14881
2.75677e-13
-4.07488e-14
-2.39489e-14
-1.08164e-14
-3.45334e-15
-1.64198e-15
-8.0957e-16
-3.19386e-16
-3.95981e-18
2.09284e-18
1.06884e-18
3.8018e-19
1.35845e-19
3.12305e-21
-1.79794e-21
0.428571
0.952381
0.952381
0.884921
0.548993
0.182998
5.54348e-13
-1.73483e-13
-1.0663e-13
-5.12232e-14
-2.09185e-14
-1.02904e-14
-4.95237e-15
-1.80355e-15
-1.27523e-16
1.62876e-17
1.57103e-17
8.97134e-18
3.71884e-18
4.26498e-19
0.047619
0.515873
0.884921
0.884921
0.83959
0.577732
0.192577
8.36502e-12
-1.26914e-12
-7.74797e-13
-3.72361e-13
-1.4472e-13
-5.89194e-14
-1.64855e-14
-1.27473e-15
-2.7288e-16
-7.84893e-17
5.68091e-17
4.02374e-17
1.20525e-17
-4.75687e-17
0.14881
0.548993
0.83959
0.839745
0.818194
0.589886
0.196629
4.53971e-11
-1.0259e-11
-6.22652e-12
-2.92903e-12
-1.10767e-12
-2.19382e-13
-9.22764e-15
-3.98415e-15
-1.65841e-15
-5.22571e-16
1.58394e-16
1.00117e-16
-2.85356e-17
4.0146e-14
0.182998
0.577732
0.818194
0.818202
0.808314
0.595383
0.198461
2.48738e-10
-6.51038e-11
-3.9534e-11
-1.84757e-11
-6.62611e-12
-5.69625e-13
-3.55508e-14
-1.74091e-14
-7.99515e-15
-2.83301e-15
3.40445e-16
-1.1614e-17
-1.58365e-17
6.46397e-13
0.192577
0.589886
0.808314
0.808318
0.803798
0.597891
0.199297
1.4473e-09
-3.28117e-10
-1.99767e-10
-9.3024e-11
-3.20483e-11
-1.09523e-12
-1.58902e-13
-7.57564e-14
-3.35687e-14
-5.42568e-15
-1.04493e-18
-8.15606e-18
-2.06583e-14
5.67999e-12
0.196629
0.595383
0.803798
0.803801
0.801735
0.599036
0.199679
9.83157e-09
-1.36274e-09
-8.32317e-10
-3.86589e-10
-1.27366e-10
-1.11575e-12
-5.70338e-13
-2.86851e-13
-8.39637e-14
-1.39086e-27
-2.22684e-18
-1.23718e-14
-5.12524e-13
4.00408e-11
0.198461
0.597891
0.801735
0.801737
0.800793
0.599559
0.199853
8.14196e-08
-4.79522e-09
-2.93876e-09
-1.35953e-09
-4.20382e-10
-3.97968e-12
-2.05972e-12
-7.11826e-13
-1.85965e-27
-9.04697e-23
-5.7332e-15
-3.07904e-13
-6.31376e-12
2.65222e-10
0.199297
0.599036
0.800793
0.800794
0.800363
0.599799
0.199932
7.79203e-07
-1.46036e-08
-8.9797e-09
-4.1256e-09
-1.16887e-09
-5.73831e-11
-2.23226e-12
-2.83294e-27
-9.04661e-23
-1.79725e-15
-1.42463e-13
-3.80572e-12
-5.33859e-11
1.77523e-09
0.199679
0.599559
0.800363
0.800363
0.800166
0.599906
0.199965
8.1049e-06
-3.92639e-08
-2.42177e-08
-1.10043e-08
-3.16705e-09
-5.95421e-12
-5.21941e-24
1.30312e-20
-5.96843e-16
-4.45781e-14
-1.75841e-12
-3.22794e-11
-3.55797e-10
1.21577e-08
0.199853
0.599799
0.800166
0.800166
0.800074
0.599931
0.200033
6.82156e-05
-9.55495e-08
-5.90696e-08
-2.6846e-08
-4.32285e-09
-6.78898e-23
1.2546e-20
4.15811e-18
-1.43256e-14
-5.49255e-13
-1.48985e-11
-2.15689e-10
-1.99013e-09
9.30803e-08
0.199932
0.599905
0.800073
0.800072
0.800013
0.599881
0.200203
0.00026306
-2.17577e-07
-1.37817e-07
-4.08538e-08
-4.48693e-22
1.13188e-20
2.75812e-18
8.18325e-16
-1.70109e-13
-4.64508e-12
-9.94523e-11
-1.20909e-09
-9.55555e-09
8.28393e-07
0.199965
0.599931
0.800013
0.800007
0.799913
0.599705
0.200607
0.00072458
-4.91789e-07
-2.43427e-07
-2.03502e-21
7.76347e-21
1.57962e-18
4.96429e-16
1.96919e-14
-1.38475e-12
-3.09263e-11
-5.56966e-10
-5.81781e-09
-3.9586e-08
8.33772e-06
0.200034
0.59988
0.799912
0.799889
0.799668
0.599352
0.201395
0.00160491
-8.71322e-07
-6.63421e-21
-1.44181e-21
8.76654e-19
2.36966e-16
1.19159e-14
2.47231e-13
-8.88984e-12
-1.83265e-10
-2.68871e-09
-2.41679e-08
-1.41671e-07
6.92793e-05
0.200206
0.599703
0.799666
0.799606
0.799133
0.598903
0.202321
0.00162727
-1.19993e-20
-1.07933e-20
5.082e-19
9.23826e-17
5.62449e-15
1.49967e-13
2.17408e-12
-3.81077e-11
-9.39311e-10
-1.12255e-08
-8.67849e-08
-4.39331e-07
0.000266017
0.200613
0.599349
0.799129
0.798993
0.798198
0.599561
0.135649
-1.28772e-20
-1.69965e-20
3.63508e-19
2.12931e-17
1.88532e-15
7.05521e-14
1.33303e-12
1.63775e-11
-6.20529e-11
-3.78477e-09
-4.02431e-08
-2.70036e-07
-1.18778e-06
0.000731117
0.201407
0.598899
0.798192
0.797933
0.79712
0.45356
-1.22302e-20
-1.91774e-20
3.19671e-19
1.23283e-17
6.99056e-16
2.68804e-14
6.42087e-13
9.94888e-12
5.69645e-11
7.75066e-12
-1.28646e-08
-1.24578e-07
-7.4628e-07
-2.88783e-06
0.00161644
0.202341
0.599557
0.797116
0.796732
0.703773
-8.13688e-21
-2.67646e-20
2.16261e-19
6.19857e-18
9.26913e-17
3.06812e-15
1.54081e-13
3.25637e-12
3.38983e-11
6.67187e-11
3.26746e-10
-2.13116e-08
-2.25474e-07
-1.42831e-06
-4.95731e-06
0.00163637
0.13566
0.453566
0.703773
0.702931
)
;

boundaryField
{
    left
    {
        type            fixedValue;
        value           nonuniform List<scalar> 
60
(
1
1
1
1
1
1
0
0
0
0
0
0
0
0
0
0
0
0
0
0
0
0
0
0
0
0
0
0
0
0
0
0
0
0
0
0
0
0
0
0
0
0
0
0
0
0
0
0
0
0
0
0
0
0
0
0
0
0
0
0
)
;
    }
    right
    {
        type            zeroGradient;
    }
    bottom
    {
        type            fixedValue;
        value           nonuniform List<scalar> 
60
(
1
1
1
1
1
1
0
0
0
0
0
0
0
0
0
0
0
0
0
0
0
0
0
0
0
0
0
0
0
0
0
0
0
0
0
0
0
0
0
0
0
0
0
0
0
0
0
0
0
0
0
0
0
0
0
0
0
0
0
0
)
;
    }
    top
    {
        type            zeroGradient;
    }
    frontAndBack
    {
        type            empty;
    }
}


// ************************************************************************* //
