/*--------------------------------*- C++ -*----------------------------------*\
| =========                 |                                                 |
| \\      /  F ield         | OpenFOAM: The Open Source CFD Toolbox           |
|  \\    /   O peration     | Version:  v2106                                 |
|   \\  /    A nd           | Website:  www.openfoam.com                      |
|    \\/     M anipulation  |                                                 |
\*---------------------------------------------------------------------------*/
FoamFile
{
    version     2.0;
    format      ascii;
    arch        "LSB;label=32;scalar=64";
    class       volScalarField;
    location    "1.1";
    object      T;
}
// * * * * * * * * * * * * * * * * * * * * * * * * * * * * * * * * * * * * * //

dimensions      [0 0 0 1 0 0 0];

internalField   nonuniform List<scalar> 
3600
(
1
1
1
1
1
1
0.428571
0.047619
7.14285e-11
2.07825e-32
-1.31556e-40
4.44744e-33
1.04892e-33
4.80498e-35
1.78849e-41
1.51014e-43
4.23694e-42
1.64221e-41
1.10799e-41
4.41639e-42
-6.52403e-44
-6.9208e-44
-7.09737e-44
-8.15644e-44
-2.90114e-43
-2.12745e-41
-6.59678e-40
-7.24194e-39
-4.19406e-38
-4.52768e-37
-1.18778e-36
-1.7416e-36
-8.70688e-33
-3.30147e-30
-1.99876e-30
-4.74051e-31
2.35457e-33
1.2206e-33
-9.76338e-34
-9.08829e-34
-2.71627e-34
-4.55393e-35
-1.4041e-35
-8.94556e-36
-2.61165e-37
-4.87618e-38
-6.77392e-39
-6.01024e-40
1.20125e-41
3.62681e-41
1.69908e-40
8.58184e-41
1.94161e-41
-8.5101e-43
-8.89527e-41
-4.99536e-41
-1.4044e-41
6.38975e-42
6.4032e-42
1.94134e-42
1
1
1
1
1
1
0.928571
0.496032
0.139881
-4.65897e-16
-1.9967e-16
-3.32784e-17
1.2507e-26
6.45532e-27
4.41427e-27
1.62891e-27
5.67159e-30
2.34505e-31
3.58841e-31
4.83694e-31
6.05373e-31
8.38412e-31
8.21678e-31
6.25002e-31
6.07577e-31
8.76006e-31
8.31754e-31
8.26291e-31
2.15601e-29
3.77575e-29
4.86055e-28
3.71069e-27
3.05863e-27
8.27221e-28
-5.97784e-28
-5.03285e-28
-1.93726e-28
-5.57394e-30
-1.71228e-31
2.17425e-32
1.15664e-32
4.43289e-36
-9.57134e-35
-5.95011e-35
-1.8267e-35
-1.5321e-38
-1.34649e-38
-1.0525e-38
-2.43215e-39
-5.31602e-40
-4.72071e-41
1.82555e-39
1.65104e-39
9.78884e-40
4.17616e-40
-4.63983e-40
-7.67083e-40
-4.00932e-40
-9.33683e-41
1.2788e-41
1
1
1
1
1
1
1
0.860119
0.5
0.15997
-4.79911e-10
-2.87947e-10
-1.34375e-10
-2.87947e-11
-8.63843e-20
2.85443e-27
1.20514e-27
1.96191e-28
5.54509e-30
4.58667e-30
1.43266e-29
1.07718e-28
8.87176e-28
6.00529e-27
3.29243e-26
1.77836e-25
4.65884e-25
3.41958e-25
-3.69931e-25
-1.33977e-24
-7.86764e-25
-2.64556e-25
7.62237e-27
5.11372e-26
2.95385e-26
2.71262e-27
-1.06581e-28
3.85393e-29
2.28666e-30
1.19854e-32
9.92798e-33
4.13007e-33
2.50733e-34
2.72738e-35
-1.02262e-35
-3.33024e-37
1.36489e-38
-2.79349e-39
-3.93579e-38
-2.68235e-38
-1.23535e-38
-3.31395e-39
8.32509e-39
2.32797e-38
1.55962e-38
6.43946e-39
6.39877e-40
-4.22125e-39
-2.75503e-39
-6.06262e-40
1
1
1
1
1
1
1
1
0.84003
0.5
0.164993
5.34599e-11
-1.34375e-10
-9.90782e-11
-3.96313e-11
-4.95391e-12
1.65282e-20
7.81206e-21
1.90622e-21
3.21502e-22
-1.21184e-23
-6.1326e-21
-5.67405e-21
-4.19198e-21
-2.71561e-21
-1.50757e-21
-6.6023e-22
8.15385e-23
8.81826e-23
3.2177e-23
-5.59632e-24
-4.85505e-24
-2.78886e-24
-3.84649e-25
-2.62657e-26
2.06059e-27
8.97346e-28
6.24102e-29
1.25055e-30
9.89711e-32
4.30627e-32
2.14048e-32
8.25843e-33
9.35022e-35
1.07547e-35
2.30746e-37
4.11762e-37
4.42267e-37
2.01784e-37
-9.28155e-38
-8.08918e-38
-5.52048e-38
-2.04459e-38
1.01081e-38
1.56593e-37
1.29054e-37
6.95123e-38
2.22991e-38
-2.36523e-38
-1.3341e-38
1
1
1
1
1
1
1
1
1
0.835007
0.5
0.166248
-1.34375e-10
-1.2261e-10
-7.77919e-11
-3.08846e-11
-3.71543e-12
1.73398e-18
1.02785e-18
4.57128e-19
1.26934e-19
3.86317e-20
-7.81197e-20
-6.52699e-20
-4.29508e-20
-2.56109e-20
-1.35534e-20
-5.39581e-21
3.92103e-22
3.14033e-22
8.69007e-23
3.29889e-23
-2.14397e-24
-1.15391e-24
-8.47766e-26
-1.45668e-27
-1.14626e-27
-1.90921e-28
-1.08599e-29
-5.17196e-30
-1.41141e-30
1.60311e-32
3.66933e-33
9.72099e-34
-1.96983e-34
8.4384e-35
6.20805e-35
2.52837e-35
1.79129e-35
-2.29798e-36
-3.00094e-36
-1.72483e-36
-7.15928e-37
-2.97246e-37
3.26041e-40
7.98853e-37
6.62116e-37
3.56094e-37
1.15494e-37
-8.93836e-38
1
1
1
1
1
1
1
1
1
1
0.833752
0.5
0.166562
-6.45827e-10
-4.33877e-10
-2.40662e-10
-8.62698e-11
-4.53683e-12
1.58345e-17
9.43086e-18
4.15476e-18
1.19777e-18
2.20545e-19
-4.94796e-19
-3.60357e-19
-2.21203e-19
-1.21826e-19
-6.01483e-20
-1.858e-20
1.76386e-21
9.29396e-22
-1.04876e-22
-1.0877e-24
-7.42632e-25
-4.81854e-26
1.35277e-26
7.2412e-27
-5.4588e-29
-1.77806e-29
-1.26701e-29
-8.51674e-30
-2.89856e-30
-1.15922e-32
-1.00374e-32
-4.55258e-33
-1.28875e-33
1.55288e-33
9.37406e-34
2.50722e-34
8.2183e-35
-1.57942e-35
-1.25452e-35
-6.32802e-36
-3.14593e-36
-2.55659e-36
-1.01002e-36
2.73831e-36
2.98565e-36
1.51097e-36
1.94788e-37
0.428571
0.928571
1
1
1
1
1
1
1
1
1
0.833438
0.5
0.166641
-1.2717e-10
-2.40663e-10
-1.98555e-10
-8.90223e-11
-1.71279e-11
7.14163e-17
4.28794e-17
1.88884e-17
5.32604e-18
7.80918e-19
-2.04893e-18
-1.46126e-18
-8.22185e-19
-3.88609e-19
-1.48248e-19
2.47754e-21
5.28953e-21
1.25156e-21
4.29621e-23
5.31956e-25
2.40835e-25
1.4385e-26
7.70114e-27
2.00571e-27
1.20806e-27
5.86374e-28
-2.98471e-30
-3.812e-30
-7.94744e-31
-2.73182e-31
-1.65552e-31
-7.30624e-32
-1.83317e-32
2.21789e-32
1.23379e-32
2.86213e-33
3.7423e-34
-3.40519e-34
-2.03357e-34
-6.52094e-35
-2.0083e-35
-1.67431e-35
-7.35948e-36
2.65722e-36
8.31088e-36
3.52935e-36
0.047619
0.496032
0.860119
1
1
1
1
1
1
1
1
1
0.833359
0.5
0.16666
-2.40663e-10
-2.26627e-10
-1.59119e-10
-7.01675e-11
-1.28461e-11
2.23367e-16
1.35047e-16
5.93867e-17
1.7836e-17
-5.55492e-19
-4.08867e-18
-3.16039e-18
-2.05137e-18
-1.04807e-18
-2.66266e-19
-1.37159e-21
-1.28078e-21
-3.34945e-22
7.97345e-24
5.40966e-24
8.39423e-25
-7.29045e-27
-8.69359e-27
-7.39874e-27
-2.22602e-27
1.46586e-29
7.01468e-30
3.25466e-30
1.21718e-30
-7.80646e-31
-9.00145e-31
-4.47102e-31
-9.05988e-32
5.41725e-32
3.18133e-32
1.30214e-32
5.05864e-33
-2.64958e-33
-1.82009e-33
-7.80662e-34
-1.64656e-34
-9.7666e-35
-4.98107e-35
-7.05432e-37
1.29635e-35
7.14285e-11
0.139881
0.5
0.84003
1
1
1
1
1
1
1
1
1
0.83334
0.5
0.166665
-7.54715e-10
-5.44661e-10
-3.33926e-10
-1.40348e-10
-2.17815e-11
5.39087e-16
3.27971e-16
1.49127e-16
4.68362e-17
-3.70898e-18
-5.04816e-18
-4.06726e-18
-2.62714e-18
-1.21898e-18
-1.24552e-19
7.94332e-20
4.36587e-20
4.43198e-21
8.3005e-22
1.06297e-22
6.95413e-26
5.91238e-26
-4.19605e-27
-4.03048e-27
-9.15037e-28
7.68702e-29
4.82798e-29
2.42584e-29
7.62801e-30
-8.20888e-31
-1.36989e-30
-7.60576e-31
-9.7494e-32
2.51397e-31
1.50578e-31
6.23292e-32
1.7537e-32
-1.34184e-32
-8.63861e-33
-3.89758e-33
-1.1416e-33
-5.6624e-34
-2.42645e-34
3.03918e-35
6.77102e-17
-3.19598e-16
0.15997
0.5
0.835007
1
1
1
1
1
1
1
1
1
0.833335
0.5
0.166666
-2.55433e-10
-3.33951e-10
-2.8104e-10
-1.41013e-10
-3.5483e-11
1.03517e-15
7.55404e-16
4.27534e-16
1.62636e-16
1.9149e-17
-1.25197e-17
-1.19593e-17
-8.34709e-18
-3.20574e-18
3.32283e-20
4.3597e-20
9.5885e-21
2.85058e-21
5.98716e-22
2.05252e-24
2.62825e-26
-1.12709e-26
-9.60837e-27
-3.90201e-27
-4.07315e-28
2.62584e-28
3.13345e-28
1.69771e-28
4.43508e-29
-5.40856e-30
-5.29601e-30
-2.17264e-30
3.51496e-32
1.13431e-30
7.33917e-31
3.3284e-31
7.98497e-32
-5.91157e-32
-3.67022e-32
-1.67566e-32
-5.89865e-33
-2.47127e-33
-2.71614e-34
1.0446e-18
-1.3669e-16
-4.79911e-10
0.164993
0.5
0.833752
1
1
1
1
1
1
1
1
1
0.833334
0.5
0.166667
-3.34155e-10
-3.16481e-10
-2.33515e-10
-1.13312e-10
-2.65917e-11
1.32707e-15
1.00992e-15
5.73171e-16
2.40137e-16
5.19522e-17
-1.10182e-17
-1.48784e-17
-1.20344e-17
-3.91971e-18
1.39086e-20
-5.997e-21
-6.51771e-21
-2.63996e-22
-3.45507e-23
4.37703e-24
-5.79705e-26
-3.80603e-26
-1.87625e-26
-5.9729e-27
-1.45783e-27
-1.41304e-29
1.15309e-27
8.32225e-28
3.25271e-28
2.92981e-29
-6.50805e-30
-4.14712e-30
-2.86978e-31
3.93325e-30
2.87816e-30
1.39053e-30
4.0107e-31
-2.36258e-31
-1.56266e-31
-7.44998e-32
-2.78211e-32
-2.48386e-33
6.66172e-20
-2.27159e-17
-2.87947e-10
5.34593e-11
0.166248
0.5
0.833438
1
1
1
1
1
1
1
1
1
0.833333
0.5
0.166667
-8.52878e-10
-6.46879e-10
-4.18752e-10
-1.93498e-10
-4.03843e-11
1.9278e-15
1.5598e-15
1.0091e-15
4.74516e-16
1.63317e-16
2.83498e-17
-1.16249e-17
-6.39037e-18
-1.83802e-18
-4.59784e-20
-9.49949e-21
1.60907e-22
1.65346e-22
9.1409e-23
8.83516e-24
-1.32042e-25
-1.13158e-25
-6.80944e-26
-2.89052e-26
-8.59137e-27
-1.06433e-28
2.01617e-27
1.60713e-27
4.59962e-28
-6.5212e-29
-4.28803e-29
-2.26871e-29
-4.94762e-30
1.26935e-29
9.76087e-30
4.89962e-30
1.42434e-30
-9.26494e-31
-6.42062e-31
-3.18055e-31
-5.65358e-32
9.225e-33
3.16506e-26
-1.34375e-10
-1.34375e-10
-1.34375e-10
0.166562
0.5
0.833359
1
1
1
1
1
1
1
1
1
0.833333
0.5
0.166667
-3.76112e-10
-4.19565e-10
-3.57468e-10
-1.91424e-10
-5.68801e-11
2.49709e-15
2.32505e-15
1.86336e-15
1.14577e-15
5.56003e-16
8.36221e-17
-2.67546e-18
-1.32029e-18
-1.11759e-19
-3.09053e-20
-9.97342e-22
-1.48675e-22
5.80476e-23
3.63424e-23
8.95776e-24
-1.40007e-25
-1.53186e-25
-1.35455e-25
-9.66286e-26
-4.3294e-26
-5.82833e-27
1.72861e-27
1.17041e-27
-1.01782e-28
-3.64346e-28
-2.70684e-28
-1.438e-28
-3.9783e-29
4.53146e-29
3.14469e-29
1.55155e-29
4.17566e-30
-3.21167e-30
-2.20845e-30
-6.14903e-31
-1.28973e-32
2.22044e-26
-2.87946e-11
-9.90782e-11
-1.22609e-10
-6.45829e-10
0.166641
0.5
0.83334
1
1
1
1
1
1
1
1
1
0.833333
0.5
0.166667
-4.2265e-10
-4.01385e-10
-3.04456e-10
-1.55178e-10
-3.91894e-11
2.25125e-15
1.92958e-15
1.21526e-15
6.10535e-16
5.18221e-17
1.73704e-18
-7.59709e-18
2.22734e-20
2.72943e-20
4.68572e-21
6.67916e-22
1.05665e-22
6.17376e-23
2.04036e-23
2.4271e-24
1.31987e-25
-1.04801e-25
-9.85203e-26
-8.40504e-26
-4.33083e-26
3.68975e-27
3.97816e-27
2.42003e-27
-1.66137e-27
-1.91507e-27
-1.37072e-27
-6.75977e-28
-1.72432e-28
1.42992e-28
8.99371e-29
4.22921e-29
1.09769e-29
-6.0739e-30
-3.27936e-30
-1.28973e-32
1.07593e-26
-8.63865e-20
-3.96312e-11
-7.77917e-11
-4.33879e-10
-1.2719e-10
0.16666
0.5
0.833335
1
1
1
1
1
1
1
1
1
0.833333
0.5
0.166667
-8.2644e-10
-6.73674e-10
-4.76389e-10
-2.27858e-10
-4.96536e-11
7.89019e-16
3.07188e-16
-3.54333e-16
-4.52625e-16
-1.15418e-16
-1.15964e-17
-1.06123e-18
3.57202e-20
1.91415e-20
-3.78487e-22
-2.12679e-22
-1.08081e-23
1.04133e-23
7.20513e-24
4.05793e-24
1.30162e-24
3.12527e-25
3.96719e-26
2.86024e-26
5.05647e-26
4.0847e-26
2.85186e-26
1.64294e-26
-1.06008e-26
-1.12455e-26
-7.3992e-27
-3.25318e-27
-3.55166e-28
3.28913e-28
2.18133e-28
1.15342e-28
3.56205e-29
-1.55481e-29
-1.28974e-32
2.80316e-27
1.11327e-24
-4.95375e-12
-3.08842e-11
-2.40665e-10
-2.40664e-10
-2.40691e-10
0.166665
0.5
0.833334
1
1
1
1
1
1
1
1
1
0.833333
0.5
0.166667
-3.54659e-10
-4.7343e-10
-4.04833e-10
-2.16863e-10
-5.81087e-11
-3.36469e-15
-2.61065e-15
-7.98634e-16
-6.22727e-17
-1.40351e-17
-3.22161e-18
-9.11841e-20
-3.96384e-20
-1.80857e-20
-3.16951e-21
6.40263e-23
4.48502e-23
1.11056e-23
3.22197e-24
4.05929e-24
3.69167e-24
1.87535e-24
7.76301e-25
3.92256e-25
3.24111e-25
2.6168e-25
1.9099e-25
8.56425e-26
-3.59934e-26
-3.90425e-26
-2.55222e-26
-1.06508e-26
4.93789e-28
1.89881e-27
1.28957e-27
5.11508e-28
6.39677e-30
-1.28966e-32
2.31986e-30
5.95975e-25
1.4876e-20
-3.71509e-12
-8.62782e-11
-1.9854e-10
-2.26645e-10
-7.55167e-10
0.166666
0.5
0.833333
1
1
1
1
1
1
1
1
1
0.833333
0.5
0.166667
-4.77264e-10
-4.52592e-10
-3.40523e-10
-1.6579e-10
-3.58467e-11
-1.64538e-15
-3.72376e-16
-3.64443e-17
-1.01752e-17
-5.44445e-19
1.26288e-20
-5.66216e-20
-5.01521e-20
-2.34575e-20
-4.05591e-21
-1.65553e-22
-9.29469e-24
-9.30867e-24
-2.77589e-24
3.84328e-24
1.33825e-23
1.18221e-23
6.39829e-24
3.43434e-24
2.1915e-24
1.66103e-24
1.06004e-24
4.3778e-25
-2.69351e-25
-2.20092e-25
-1.14424e-25
-3.58382e-26
1.79968e-26
1.38415e-26
6.60956e-27
5.33534e-28
-1.28684e-32
1.13503e-30
2.25784e-25
8.93048e-21
2.56773e-21
-4.54606e-12
-8.90132e-11
-1.59115e-10
-5.4517e-10
-2.57246e-10
0.166667
0.5
0.833333
1
1
1
1
1
1
1
1
1
0.833333
0.5
0.166667
-7.29482e-10
-6.4236e-10
-4.3326e-10
-1.84871e-10
-2.45188e-11
6.55941e-17
3.48594e-17
1.98491e-17
1.16958e-17
4.7118e-18
-9.01113e-21
-5.51814e-20
-4.32391e-20
-1.91075e-20
-1.05104e-21
-8.9001e-22
-1.20313e-21
-8.7469e-22
-3.97139e-22
-1.19978e-22
1.72694e-23
2.57507e-23
2.36239e-23
1.92688e-23
1.56678e-23
1.06635e-23
5.63607e-24
1.61953e-24
-1.36686e-24
-8.74199e-25
-3.74318e-25
-7.73476e-26
8.83905e-26
5.62394e-26
1.34123e-26
-1.2804e-32
3.26268e-31
3.15342e-26
4.16448e-21
4.18045e-21
5.17035e-21
-1.71215e-11
-7.01593e-11
-3.34064e-10
-3.346e-10
-3.36793e-10
0.166667
0.5
0.833333
1
1
1
1
1
1
1
1
1
0.833333
0.5
0.166667
-2.65907e-10
-4.91835e-10
-3.98506e-10
-1.92163e-10
-3.93836e-11
2.88331e-16
1.78757e-16
8.74816e-17
3.4242e-17
3.08647e-18
-9.20566e-20
-7.70883e-20
-4.32088e-20
-1.10532e-20
-9.67635e-22
-1.28849e-21
-2.22522e-21
-2.14347e-21
-1.34781e-21
-4.69191e-22
2.47799e-23
2.42718e-23
2.67966e-23
3.18487e-23
4.25265e-23
3.4419e-23
1.58698e-23
3.35879e-24
-4.02261e-24
-2.45028e-24
-9.89893e-25
-1.72078e-25
2.38515e-25
1.08602e-25
-1.27176e-32
4.52116e-31
-7.99374e-29
8.83605e-22
2.94563e-21
4.3923e-21
6.04476e-20
-1.28384e-11
-1.40572e-10
-2.80614e-10
-3.18352e-10
-8.65508e-10
0.166667
0.5
0.833333
1
1
1
1
1
1
1
1
1
0.833333
0.5
0.166667
-5.62274e-10
-5.16503e-10
-3.55587e-10
-1.56915e-10
-2.42732e-11
7.42063e-16
4.67079e-16
2.21765e-16
6.81233e-17
4.95946e-19
-1.7203e-19
-1.17819e-19
-5.39192e-20
-1.28269e-20
1.37261e-21
7.64683e-22
-1.03152e-21
-2.2276e-21
-1.54295e-21
-5.46331e-22
-5.7626e-23
-2.05601e-23
2.48564e-24
2.60998e-23
6.28641e-23
6.22255e-23
3.18889e-23
5.83945e-24
-9.45197e-24
-6.13685e-24
-2.53872e-24
-2.39198e-25
4.70808e-25
-1.25633e-32
4.16108e-31
-7.86788e-29
1.19648e-27
1.06828e-21
2.45164e-21
3.85435e-20
2.25525e-20
-2.198e-11
-1.40343e-10
-2.33495e-10
-6.61609e-10
-4.17097e-10
0.166667
0.5
0.833333
1
1
1
1
1
1
1
1
1
0.833333
0.5
0.166667
-7.76088e-10
-6.87588e-10
-4.41858e-10
-1.73112e-10
-1.68201e-11
2.21375e-15
1.37184e-15
6.23587e-16
1.70622e-16
4.56784e-18
-1.0786e-18
-6.54579e-19
-2.90213e-19
-8.41648e-20
1.05486e-21
-7.27497e-23
-2.6517e-21
-2.66672e-21
-1.92492e-21
-1.01544e-21
-5.32198e-22
-3.15311e-22
-1.80216e-22
-5.41919e-23
5.52686e-23
6.75572e-23
3.87258e-23
5.59466e-24
-1.88699e-23
-1.29965e-23
-5.35482e-24
9.59084e-26
-1.21211e-32
2.40493e-31
-4.68685e-29
-3.05934e-28
2.73287e-23
7.05069e-22
1.66495e-20
2.26001e-20
1.18592e-19
-3.45675e-11
-1.11552e-10
-4.22072e-10
-4.225e-10
-4.59568e-10
0.166667
0.5
0.833333
1
1
1
1
1
1
1
1
1
0.833333
0.5
0.166667
-1.53239e-10
-6.31786e-10
-4.42306e-10
-1.68032e-10
-1.81412e-11
7.08293e-15
4.34371e-15
1.94047e-15
5.26848e-16
2.33451e-17
-8.18442e-18
-5.97052e-18
-2.75963e-18
-8.50038e-19
-8.53329e-20
-1.13855e-20
-7.06357e-21
-5.66702e-21
-4.36069e-21
-3.22537e-21
-2.35243e-21
-1.64267e-21
-1.01515e-21
-4.43134e-22
9.59146e-23
1.10578e-22
7.06781e-23
1.10296e-23
-3.72283e-23
-2.58253e-23
-5.89914e-24
-6.28102e-33
-2.29e-31
1.83351e-29
-2.31709e-28
3.79779e-26
6.56291e-24
1.9441e-21
1.15128e-20
7.41023e-20
6.31445e-19
-2.37777e-11
-1.85605e-10
-3.43657e-10
-4.2429e-10
-8.89744e-10
0.166667
0.5
0.833333
1
1
1
1
1
1
1
1
1
0.833333
0.5
0.166667
-3.87377e-10
-8.46342e-10
-5.38162e-10
-2.14014e-10
-3.21893e-11
2.22201e-14
1.35963e-14
6.05103e-15
1.69941e-15
-2.54936e-18
-1.28369e-17
-1.03631e-17
-5.72349e-18
-2.40095e-18
-6.45879e-19
-1.78793e-19
-1.64069e-20
-1.60329e-20
-1.47492e-20
-1.20508e-20
-9.16651e-21
-6.45497e-21
-3.89126e-21
-1.18235e-21
6.52248e-22
4.24932e-22
2.16557e-22
2.67479e-23
-7.91008e-23
-3.69633e-23
-8.23194e-34
-3.34052e-30
4.61114e-29
3.91844e-30
6.18291e-27
1.10967e-23
1.41531e-22
3.23588e-21
3.40856e-20
3.68295e-19
2.09382e-18
-2.62375e-11
-1.61232e-10
-2.82675e-10
-7.37064e-10
-4.2175e-10
0.166667
0.5
0.833333
1
1
1
1
1
1
1
1
1
0.833333
0.5
0.166667
-2.94992e-10
-1.3626e-09
-8.47485e-10
-3.50518e-10
-6.62094e-11
6.65411e-14
4.07405e-14
1.81737e-14
4.98554e-15
-9.00903e-17
-5.96946e-17
-3.25213e-17
-1.5456e-17
-5.89465e-18
-2.32882e-18
-5.89004e-19
-5.58489e-20
-5.80781e-20
-5.2736e-20
-4.24903e-20
-3.12806e-20
-2.1187e-20
-1.0175e-20
4.47413e-22
1.80788e-21
1.37433e-21
6.27981e-22
-8.66969e-23
-1.23316e-22
-1.17184e-37
-3.02709e-30
-2.12408e-29
7.81397e-30
6.48051e-28
6.18439e-24
7.50056e-23
6.29334e-22
1.085e-20
1.58479e-19
1.28539e-18
7.6182e-18
-2.8887e-11
-1.194e-10
-4.13144e-10
-5.45442e-10
-5.77058e-10
0.166667
0.5
0.833333
1
1
1
1
1
1
1
1
1
0.833333
0.5
0.166667
9.11976e-10
-2.55567e-09
-1.58013e-09
-6.71306e-10
-1.4212e-10
1.90439e-13
1.16806e-13
5.20512e-14
1.40158e-14
-3.68657e-16
-2.29627e-16
-1.12012e-16
-4.31692e-17
-1.58362e-17
-6.21343e-18
-8.47637e-19
-2.77965e-19
-2.16236e-19
-1.68833e-19
-1.32639e-19
-9.26666e-20
-5.60204e-20
-1.85627e-20
8.31592e-21
6.26954e-21
3.99711e-21
1.60865e-21
-3.3882e-22
-4.89488e-38
-1.56329e-30
-3.32275e-29
-2.40579e-28
1.08642e-27
6.14401e-25
2.59922e-23
2.79868e-22
2.19367e-21
4.36649e-20
5.79662e-19
4.66933e-18
2.92065e-17
-1.5945e-11
-1.43158e-10
-4.24718e-10
-5.28784e-10
-8.20154e-10
0.166667
0.5
0.833333
1
1
1
1
1
1
1
1
1
0.833333
0.5
0.166667
1.67425e-09
-5.18391e-09
-3.19808e-09
-1.37461e-09
-3.01465e-10
5.26795e-13
3.23616e-13
1.44072e-13
3.83493e-14
-1.17849e-15
-7.27288e-16
-3.40819e-16
-1.15959e-16
-4.43048e-17
-7.83146e-18
-1.31612e-18
-8.92988e-19
-6.73986e-19
-4.9596e-19
-3.76946e-19
-2.34706e-19
-1.17732e-19
9.83363e-21
2.38056e-20
1.92995e-20
1.11491e-20
1.30029e-21
-2.05031e-38
-4.025e-31
-2.02692e-29
-7.06399e-28
5.33154e-28
-1.70682e-24
5.36842e-24
1.17847e-22
1.089e-21
7.53788e-21
1.78033e-19
2.11881e-18
1.79039e-17
1.26129e-16
-2.57242e-12
-1.75754e-10
-3.42215e-10
-7.16862e-10
-2.96202e-10
0.166667
0.5
0.833333
1
1
1
1
1
1
1
1
1
0.833333
0.5
0.166667
4.12044e-09
-1.06813e-08
-6.58598e-09
-2.83798e-09
-6.21685e-10
1.43158e-12
8.80474e-13
3.91917e-13
1.0378e-13
-3.19427e-15
-1.96993e-15
-9.04631e-16
-3.26709e-16
-5.59195e-17
-7.40568e-18
-4.21511e-18
-2.67422e-18
-1.95249e-18
-1.31341e-18
-9.47672e-19
-4.93202e-19
-1.19888e-19
9.07313e-20
7.95405e-20
5.80723e-20
1.40066e-20
1.22368e-36
-2.18159e-31
-6.32368e-30
-5.29171e-28
-8.3713e-28
-1.02639e-24
-5.71557e-24
3.59291e-23
4.85935e-22
3.61821e-21
2.0479e-20
6.46964e-19
8.13201e-18
7.70917e-17
5.89497e-16
-2.51041e-11
-1.39832e-10
-4.34856e-10
-5.9813e-10
-4.24081e-10
0.166667
0.5
0.833333
1
1
1
1
1
1
1
1
1
0.833333
0.5
0.166667
9.76505e-09
-2.16896e-08
-1.33758e-08
-5.75477e-09
-1.24095e-09
3.8916e-12
2.3948e-12
1.06635e-12
2.8244e-13
-7.5412e-15
-4.65596e-15
-2.14835e-15
-7.00271e-16
-4.67752e-17
-2.12952e-17
-1.21566e-17
-7.34913e-18
-5.24911e-18
-3.17423e-18
-2.0869e-18
-7.40774e-19
2.93088e-19
2.76374e-19
2.4336e-19
8.86281e-20
1.24057e-35
-1.58566e-31
-2.81112e-30
-1.92396e-28
-7.78778e-28
-4.69653e-25
-4.19726e-24
-1.88978e-23
1.19987e-22
1.43729e-21
9.38993e-21
5.57942e-20
2.37674e-18
3.48547e-17
3.58888e-16
2.73476e-15
-1.90939e-11
-1.65649e-10
-4.40426e-10
-7.04776e-10
-3.67947e-10
0.166667
0.5
0.833333
1
1
1
1
1
1
1
1
1
0.833333
0.5
0.166667
1.87287e-08
-4.29289e-08
-2.64856e-08
-1.13595e-08
-2.39968e-09
1.07267e-11
6.59915e-12
2.93917e-12
7.8026e-13
-1.5719e-14
-9.75128e-15
-4.50614e-15
-1.32186e-15
-8.65054e-17
-5.05684e-17
-3.17343e-17
-1.90945e-17
-1.33526e-17
-7.21107e-18
-3.91967e-18
5.98365e-20
1.16662e-18
1.03431e-18
4.56359e-19
1.12914e-34
-6.57286e-32
-2.74249e-30
-5.54257e-29
-3.95921e-28
-1.21827e-25
-2.11768e-24
-1.47993e-23
-6.27696e-23
-2.23501e-22
2.87095e-21
2.38108e-20
3.07496e-19
1.11527e-17
1.62669e-16
1.66327e-15
1.19825e-14
-1.57862e-11
-1.62268e-10
-4.61753e-10
-1.11212e-09
8.5031e-10
0.166667
0.5
0.833333
1
1
1
1
1
1
1
1
1
0.833333
0.5
0.166667
3.59484e-08
-8.26454e-08
-5.10172e-08
-2.18037e-08
-4.51175e-09
3.00329e-11
1.84605e-11
8.21852e-12
2.18122e-12
-2.92815e-14
-1.84061e-14
-8.64329e-15
-2.5399e-15
-2.26153e-16
-1.31938e-16
-8.01946e-17
-4.73048e-17
-3.13323e-17
-1.53531e-17
-5.74687e-18
4.98281e-18
4.69408e-18
2.4618e-18
8.11791e-34
-2.07815e-32
-1.79441e-30
-4.0802e-29
-3.09408e-28
-2.67298e-27
-7.87258e-25
-8.32801e-24
-4.85543e-23
-3.15081e-22
-1.89195e-21
5.32342e-21
4.90411e-20
5.58924e-19
5.15537e-17
7.52285e-16
7.2893e-15
4.87002e-14
-1.14959e-11
-1.75292e-10
-6.91864e-10
-2.24408e-09
1.89877e-09
0.166667
0.5
0.833333
1
1
1
1
1
1
1
1
1
0.833333
0.5
0.166667
6.76552e-08
-1.55079e-07
-9.57861e-08
-4.08019e-08
-8.29117e-09
8.44633e-11
5.18694e-11
2.30609e-11
6.08176e-12
-4.89485e-14
-3.65325e-14
-1.65506e-14
-4.55041e-15
-7.18314e-16
-3.5202e-16
-1.97634e-16
-1.11898e-16
-6.91142e-17
-3.10456e-17
-7.35452e-18
1.98407e-17
1.35603e-17
1.11481e-32
1.0279e-33
-9.71281e-31
-2.70206e-29
-2.8733e-28
-1.10376e-27
-5.63166e-26
-3.40133e-24
-3.02205e-23
-2.42234e-22
-1.60012e-21
-8.03949e-21
8.06126e-22
3.28548e-20
1.08776e-18
2.34148e-16
3.28954e-15
2.96519e-14
1.83033e-13
-2.08328e-11
-2.82261e-10
-1.38552e-09
-5.22772e-09
5.50473e-09
0.166667
0.5
0.833333
1
1
1
1
1
1
1
1
1
0.833333
0.5
0.166667
1.21973e-07
-2.84805e-07
-1.76011e-07
-7.47719e-08
-1.4983e-08
2.34374e-10
1.43847e-10
6.38095e-11
1.65974e-11
-6.59393e-14
-5.88939e-14
-3.11906e-14
-1.11184e-14
-1.74917e-15
-7.89041e-16
-4.50032e-16
-2.49925e-16
-1.48662e-16
-7.24401e-17
-8.4611e-18
4.7874e-17
5.72886e-33
5.96412e-32
-3.78921e-31
-1.65556e-29
-2.23711e-28
-1.29233e-27
-5.42306e-27
-8.59005e-25
-1.53497e-23
-1.43725e-22
-9.91847e-22
-5.78862e-21
-2.76303e-20
-2.46136e-20
2.44846e-21
2.48267e-18
1.00361e-15
1.33532e-14
1.11575e-13
6.37686e-13
-5.38143e-11
-5.94032e-10
-3.21837e-09
-1.25997e-08
1.46711e-08
0.166667
0.5
0.833333
1
1
1
1
1
1
1
1
1
0.833333
0.5
0.166667
2.17582e-07
-5.14527e-07
-3.18142e-07
-1.3489e-07
-2.67805e-08
6.3082e-10
3.87129e-10
1.71193e-10
4.36161e-11
-3.65896e-14
-7.45624e-14
-4.59237e-14
-1.91744e-14
-4.82276e-15
-1.88499e-15
-9.42754e-16
-5.08798e-16
-3.53875e-16
-2.07996e-16
3.10038e-17
1.46705e-33
4.90405e-32
1.46188e-31
-4.43838e-30
-1.45537e-28
-1.20743e-27
-5.81256e-27
-2.44336e-26
-5.06658e-24
-6.3768e-23
-5.02316e-22
-3.28688e-21
-1.88578e-20
-5.02952e-20
-4.82695e-20
-2.7452e-20
4.62161e-18
3.98494e-15
5.01325e-14
3.89232e-13
2.06822e-12
-1.38031e-10
-1.40747e-09
-7.75108e-09
-2.98787e-08
3.28243e-08
0.166667
0.5
0.833333
1
1
1
1
1
1
1
1
1
0.833333
0.5
0.166667
3.84476e-07
-9.19069e-07
-5.68501e-07
-2.40763e-07
-4.75527e-08
1.62654e-09
9.98506e-10
4.39818e-10
1.09252e-10
3.56356e-14
-1.29201e-13
-8.17271e-14
-3.71338e-14
-1.24319e-14
-3.60941e-15
-1.65924e-15
-1.07682e-15
-1.03377e-15
-6.41054e-16
2.45518e-35
2.54991e-32
1.94888e-31
1.11664e-29
-2.31759e-29
-7.71096e-28
-5.20676e-27
-6.09983e-26
1.63135e-26
-1.02964e-23
-1.59055e-22
-1.44205e-21
-9.78305e-21
-4.16607e-20
-5.62841e-20
-2.99446e-20
2.98892e-20
6.46705e-19
1.45781e-14
1.74412e-13
1.26403e-12
6.27271e-12
-3.4682e-10
-3.4063e-09
-1.83853e-08
-6.85072e-08
7.17047e-08
0.166667
0.5
0.833333
1
1
1
1
1
1
1
1
1
0.833333
0.5
0.166668
6.71642e-07
-1.62978e-06
-1.00837e-06
-4.26798e-07
-8.40416e-08
3.9878e-09
2.44948e-09
1.074e-09
2.58751e-10
3.48807e-13
-3.30506e-13
-2.06899e-13
-9.66789e-14
-3.41368e-14
-5.11244e-15
-5.13246e-15
-3.53576e-15
-5.19248e-16
4.00918e-36
1.0305e-32
1.66844e-31
7.20249e-30
1.16724e-28
-1.45644e-28
-2.79395e-27
-8.88553e-26
-4.37354e-26
1.66059e-24
-3.51405e-23
-4.81798e-22
-4.01224e-21
-2.66182e-20
-6.08605e-20
-1.60306e-20
4.86958e-20
1.43324e-19
-2.13544e-17
4.95299e-14
5.64835e-13
3.83859e-12
1.78675e-11
-8.42975e-10
-8.07323e-09
-4.21801e-08
-1.51129e-07
1.50523e-07
0.166667
0.5
0.833333
1
1
1
1
1
1
1
1
1
0.833333
0.500001
0.166669
1.16686e-06
-2.87515e-06
-1.77906e-06
-7.52692e-07
-1.47687e-07
9.26165e-09
5.69307e-09
2.48287e-09
5.78082e-10
1.35104e-12
-1.14145e-12
-7.0228e-13
-3.23044e-13
-1.08443e-13
-3.19553e-15
1.43183e-15
3.28605e-15
-4.21126e-34
4.52599e-33
1.3619e-31
3.81519e-30
7.09403e-29
6.10105e-28
-4.59666e-28
-7.38437e-26
-9.2285e-26
1.46613e-24
3.85416e-25
-1.13778e-22
-1.51237e-21
-1.3775e-20
-5.70524e-20
-2.38835e-20
1.09229e-19
1.81103e-19
-1.25925e-17
-2.46204e-16
1.56732e-13
1.71035e-12
1.09478e-11
4.79896e-11
-1.96632e-09
-1.84668e-08
-9.31148e-08
-3.20561e-07
3.00502e-07
0.166667
0.5
0.833333
1
1
1
1
1
1
1
1
1
0.833333
0.500001
0.16667
2.01489e-06
-5.04433e-06
-3.12122e-06
-1.31963e-06
-2.57161e-07
2.03493e-08
1.25183e-08
5.42672e-09
1.21749e-09
3.74857e-12
-3.97875e-12
-2.43174e-12
-1.09497e-12
-3.4244e-13
5.73052e-14
3.72983e-14
-1.19229e-33
1.9583e-33
8.77224e-32
2.58098e-30
2.87338e-29
4.18192e-28
2.39325e-27
-3.1646e-26
-7.69117e-26
4.56962e-25
8.16609e-24
-2.15459e-23
-5.88921e-22
-6.04029e-21
-5.10907e-20
-3.67302e-20
2.03938e-19
3.14177e-19
-5.39135e-18
-1.47276e-16
-1.63265e-15
4.63645e-13
4.86309e-12
2.94397e-11
1.21968e-10
-4.3925e-09
-4.06066e-08
-1.97639e-07
-6.54254e-07
5.78812e-07
0.166668
0.500001
0.833333
1
1
1
1
1
1
1
1
1
0.833333
0.500002
0.166672
3.4525e-06
-8.7794e-06
-5.43184e-06
-2.29343e-06
-4.41504e-07
4.23026e-08
2.60427e-08
1.12148e-08
2.41814e-09
8.19976e-12
-1.24174e-11
-7.76157e-12
-3.42298e-12
-9.75575e-13
2.86249e-13
-5.70712e-34
-7.90652e-33
2.76118e-32
1.10919e-30
1.35013e-29
1.90368e-28
1.92037e-27
4.00592e-27
-1.8735e-26
1.1066e-25
4.73046e-24
3.08613e-23
-1.05789e-22
-2.33675e-21
-4.23345e-20
-4.45114e-20
1.14658e-19
7.10265e-19
-1.24414e-18
-6.56109e-17
-9.82933e-16
-8.05888e-15
1.28692e-12
1.30343e-11
7.49083e-11
2.94261e-10
-9.40029e-09
-8.5806e-08
-4.03623e-07
-1.28643e-06
1.07559e-06
0.16667
0.500002
0.833333
0.999999
1
1
1
1
1
1
1
1
0.833334
0.500004
0.166677
5.88972e-06
-1.50989e-05
-9.34075e-06
-3.93483e-06
-7.43794e-07
8.32791e-08
5.13037e-08
2.19346e-08
4.53925e-09
1.32845e-11
-3.09198e-11
-2.47702e-11
-1.13161e-11
-1.44003e-12
-6.98089e-35
-6.42892e-33
-2.09678e-32
-2.82847e-31
5.88804e-31
3.56137e-29
7.77979e-28
3.38285e-27
7.62587e-27
4.62778e-26
2.00179e-24
1.85108e-23
9.33905e-23
-2.15163e-22
-1.99654e-20
-5.68327e-20
1.90662e-20
5.51744e-19
1.44595e-18
-2.08455e-17
-4.41262e-16
-4.8749e-15
-3.25988e-14
3.36332e-12
3.30464e-11
1.80918e-10
6.75812e-10
-1.92944e-08
-1.74394e-07
-7.94062e-07
-2.44027e-06
1.9279e-06
0.166672
0.500003
0.833333
0.999999
1
1
1
1
1
1
1
1
0.833335
0.500007
0.166684
1.00339e-05
-2.55485e-05
-1.5804e-05
-6.63633e-06
-1.22935e-06
1.55467e-07
9.58334e-08
4.06763e-08
8.16791e-09
-4.40749e-11
-4.27855e-11
-3.41333e-11
-1.22701e-11
-1.8513e-36
-3.33284e-33
-2.1986e-32
-1.91321e-31
-1.38448e-30
-6.75646e-30
8.63921e-29
9.99222e-28
4.87745e-27
1.95928e-26
4.02559e-25
7.92214e-24
8.20047e-23
9.80205e-23
-6.96963e-21
-7.05666e-20
-5.3145e-20
2.29283e-19
1.24813e-18
2.21984e-18
-1.37798e-16
-2.18785e-15
-1.97921e-14
-1.13522e-13
8.30279e-12
7.95e-11
4.15915e-10
1.48121e-09
-3.80343e-08
-3.41344e-07
-1.50699e-06
-4.47237e-06
3.34416e-06
0.166676
0.500006
0.833333
0.999998
1
1
1
1
1
1
1
1
0.833336
0.500013
0.166697
1.70919e-05
-4.23658e-05
-2.62107e-05
-1.09842e-05
-2.05365e-06
2.75622e-07
1.70027e-07
7.23053e-08
1.47737e-08
-1.34642e-10
-1.03047e-10
-4.45983e-11
5.63744e-36
-1.31113e-33
-1.47009e-32
-1.55232e-31
-1.18093e-30
-4.75435e-30
-1.26168e-29
-5.12723e-30
1.19653e-27
-4.42971e-27
8.34997e-26
1.74227e-24
4.36764e-23
1.27401e-22
-1.0914e-21
-4.26166e-20
-1.75646e-19
-5.7769e-20
7.5551e-19
2.19218e-18
1.63423e-18
-6.56365e-16
-8.85946e-15
-6.91319e-14
-3.50444e-13
1.94171e-11
1.81978e-10
9.12392e-10
3.10512e-09
-7.2112e-08
-6.44337e-07
-2.76299e-06
-7.93157e-06
5.62174e-06
0.166682
0.50001
0.833333
0.999997
1
1
1
1
1
1
1
1
0.83334
0.500023
0.166718
2.90369e-05
-6.86332e-05
-4.25358e-05
-1.80134e-05
-3.64121e-06
4.64724e-07
2.89413e-07
1.26424e-07
2.80684e-08
-3.2007e-10
-1.76389e-10
2.50244e-35
-5.64109e-35
-6.25472e-33
-8.25522e-32
-6.85071e-31
-2.82117e-30
-1.05347e-29
-2.01099e-29
-2.27208e-28
-4.93359e-27
-7.4527e-26
1.7776e-25
1.73724e-23
1.45249e-22
-2.67266e-22
-1.93356e-20
-1.26078e-19
-3.64795e-19
2.18029e-21
1.59114e-18
1.16883e-18
-4.85595e-18
-2.53298e-15
-3.08138e-14
-2.13941e-13
-9.77309e-13
4.31332e-11
3.97332e-10
1.9142e-09
6.23879e-09
-1.31701e-07
-1.17476e-06
-4.90156e-06
-1.36332e-05
9.16962e-06
0.166693
0.500016
0.833334
0.999996
1
1
1
1
1
1
1
0.999999
0.833346
0.500041
0.166755
4.90227e-05
-0.000108354
-7.14562e-05
-3.09828e-05
-6.24176e-06
7.44465e-07
5.19506e-07
2.25217e-07
4.46803e-08
-5.31844e-10
2.91199e-35
3.15167e-35
1.88234e-34
-1.21265e-32
-1.60709e-31
-1.12205e-30
-5.61624e-30
-1.60046e-29
-1.84151e-28
-3.47452e-27
-6.3515e-26
-7.78063e-26
2.73302e-24
8.96978e-23
4.60331e-22
-5.99116e-21
-6.33356e-20
-3.04826e-19
-6.39363e-19
-7.20898e-20
-4.10718e-19
-6.14495e-18
-5.07526e-17
-8.48777e-15
-9.49635e-14
-5.97963e-13
-2.49532e-12
9.12338e-11
8.29354e-10
3.84859e-09
1.20362e-08
-2.32078e-07
-2.07204e-06
-8.42701e-06
-2.27496e-05
1.45287e-05
0.166709
0.500026
0.833335
0.999994
1
1
1
0.999999
0.999999
0.999999
0.999999
0.999998
0.833356
0.500071
0.166816
8.1172e-05
-0.000164061
-0.000118037
-5.04912e-05
-9.20715e-06
1.10093e-06
8.37928e-07
3.53251e-07
3.86389e-08
1.63872e-35
3.05137e-35
3.24899e-35
-2.5022e-34
4.26856e-34
-1.62546e-33
-8.2598e-31
-6.72318e-30
-1.03688e-28
-1.95667e-27
-3.05041e-26
-3.61865e-25
3.14111e-25
3.96046e-23
3.40864e-22
2.25737e-21
-2.03696e-20
-1.4894e-19
-5.11634e-19
-9.31425e-19
-2.03512e-18
-6.74854e-18
-3.43591e-17
-2.07056e-16
-2.54341e-14
-2.64421e-13
-1.5299e-12
-5.88926e-12
1.84152e-10
1.65828e-09
7.42903e-09
2.23351e-08
-3.95385e-07
-3.54201e-06
-1.40654e-05
-3.69146e-05
2.23068e-05
0.166733
0.50004
0.833337
0.999992
1
1
0.999999
0.999997
0.999998
0.999998
0.999998
0.999996
0.833373
0.500122
0.166915
0.000134821
-0.000237267
-0.000181056
-7.57209e-05
-1.2464e-05
1.52458e-06
1.1882e-06
3.45603e-07
1.75205e-36
1.39365e-35
-5.33307e-36
-1.58665e-34
2.13331e-34
1.73232e-33
2.11352e-31
-3.7941e-31
-3.2168e-29
-8.50248e-28
-1.23337e-26
-2.4027e-25
-1.35713e-24
1.09475e-23
1.67387e-22
1.44957e-21
6.71117e-21
-4.36634e-20
-2.39299e-19
-7.21107e-19
-1.91145e-18
-6.04124e-18
-2.29511e-17
-9.85025e-17
-4.29615e-16
-6.82927e-14
-6.73105e-13
-3.61691e-12
-1.29368e-11
3.55432e-10
3.18214e-09
1.37918e-08
3.99299e-08
-6.54276e-07
-5.88652e-06
-2.28428e-05
-5.83366e-05
3.25832e-05
0.166768
0.500061
0.833341
0.999991
0.999999
0.999999
0.999998
0.999993
0.999994
0.999995
0.999995
0.999991
0.833403
0.50021
0.167076
0.000228094