/*--------------------------------*- C++ -*----------------------------------*\
| =========                 |                                                 |
| \\      /  F ield         | OpenFOAM: The Open Source CFD Toolbox           |
|  \\    /   O peration     | Version:  v2106                                 |
|   \\  /    A nd           | Website:  www.openfoam.com                      |
|    \\/     M anipulation  |                                                 |
\*---------------------------------------------------------------------------*/
FoamFile
{
    version     2.0;
    format      ascii;
    arch        "LSB;label=32;scalar=64";
    class       volScalarField;
    location    "1.5";
    object      T;
}
// * * * * * * * * * * * * * * * * * * * * * * * * * * * * * * * * * * * * * //

dimensions      [ 0 0 0 1 0 0 0 ];

internalField   nonuniform List<scalar> 
400
(
1
1
0.428571
0.047619
-6.90639e-16
-6.74306e-16
-2.82238e-16
-4.33053e-17
3.48384e-20
3.48384e-20
3.48384e-20
3.48345e-20
1.20075e-19
2.50832e-19
1.03896e-19
4.48767e-21
1.72493e-23
-5.44804e-23
-5.41219e-23
-1.47714e-23
1
1
0.952381
0.515873
0.14881
1.32529e-13
-1.96184e-14
-1.15413e-14
-5.16885e-15
-1.45317e-15
-5.22048e-16
-2.60811e-16
-1.23164e-16
-2.892e-17
1.14777e-18
6.25038e-19
2.24387e-19
5.99817e-20
2.71025e-21
-8.59989e-22
0.428571
0.952381
0.952381
0.884921
0.548993
0.182998
2.78015e-13
-9.75617e-14
-5.94597e-14
-2.75566e-14
-9.17454e-15
-3.89952e-15
-1.8862e-15
-8.00029e-16
-1.43689e-16
8.41919e-18
8.07005e-18
4.63906e-18
1.99675e-18
2.80421e-19
0.047619
0.515873
0.884921
0.884921
0.83959
0.577732
0.192577
3.94587e-12
-6.67885e-13
-4.06384e-13
-1.90919e-13
-6.70147e-14
-2.53986e-14
-9.06729e-15
-7.43496e-16
-9.02575e-17
-2.85568e-17
1.97047e-17
1.67539e-17
6.56447e-18
-4.75752e-17
0.14881
0.548993
0.83959
0.839745
0.818194
0.589886
0.196629
2.2452e-11
-5.32559e-12
-3.22823e-12
-1.50732e-12
-5.52103e-13
-1.17063e-13
-4.3592e-15
-1.5701e-15
-6.80791e-16
-2.24348e-16
6.05415e-17
5.74263e-17
-2.85425e-17
1.73248e-14
0.182998
0.577732
0.818194
0.818202
0.808314
0.595383
0.198461
1.2422e-10
-3.47116e-11
-2.10622e-11
-9.8214e-12
-3.52392e-12
-3.09699e-13
-1.41992e-14
-7.01452e-15
-3.27964e-15
-1.2305e-15
2.09677e-17
-1.16314e-17
-1.58365e-17
2.86184e-13
0.192577
0.589886
0.808314
0.808318
0.803798
0.597891
0.199297
7.00513e-10
-1.80897e-10
-1.10067e-10
-5.12415e-11
-1.76972e-11
-6.68743e-13
-6.55879e-14
-3.16205e-14
-1.44232e-14
-2.76675e-15
-1.05572e-18
-8.1737e-18
-9.64502e-15
2.61817e-12
0.196629
0.595383
0.803798
0.803801
0.801735
0.599036
0.199679
4.5137e-09
-7.77823e-10
-4.74762e-10
-2.20543e-10
-7.35641e-11
-4.68846e-13
-2.40277e-13
-1.21734e-13
-3.67726e-14
-1.08543e-28
-2.25261e-18
-5.77633e-15
-2.47466e-13
1.9209e-11
0.198461
0.597891
0.801735
0.801737
0.800793
0.599559
0.199853
3.58877e-08
-2.83531e-09
-1.73631e-09
-8.04285e-10
-2.52103e-10
-1.66263e-12
-8.63706e-13
-3.03109e-13
-1.44115e-28
-1.96885e-23
-2.67649e-15
-1.48662e-13
-3.15589e-12
1.29605e-10
0.199297
0.599036
0.800793
0.800794
0.800362
0.599799
0.199932
3.37489e-07
-8.94766e-09
-5.49764e-09
-2.53058e-09
-7.33151e-10
-2.71957e-11
-9.698e-13
-2.11983e-28
-1.96885e-23
-8.38873e-16
-6.87954e-14
-1.90195e-12
-2.75336e-11
8.59631e-10
0.199679
0.599559
0.800362
0.800363
0.800166
0.599908
0.199966
3.49314e-06
-2.49103e-08
-1.53519e-08
-6.99788e-09
-2.02852e-09
-2.68696e-12
-6.33165e-25
3.01672e-21
-2.78637e-16
-2.15365e-14
-8.78951e-13
-1.66436e-11
-1.88484e-10
5.7288e-09
0.199853
0.599799
0.800166
0.800166
0.800075
0.599942
0.200008
3.51055e-05
-6.25417e-08
-3.86359e-08
-1.75862e-08
-2.85461e-09
-9.40602e-24
2.90351e-21
1.7233e-18
-6.93027e-15
-2.74668e-13
-7.68322e-12
-1.14228e-10
-1.07996e-09
4.22524e-08
0.199932
0.599908
0.800075
0.800075
0.800023
0.599922
0.200116
0.000156719
-1.4573e-07
-9.22026e-08
-2.73976e-08
-7.05676e-23
2.65027e-21
1.1092e-18
3.78423e-16
-8.53018e-14
-2.39647e-12
-5.26791e-11
-6.55928e-10
-5.31347e-09
3.64726e-07
0.199966
0.599942
0.800023
0.80002
0.799958
0.599811
0.20038
0.000461294
-3.33413e-07
-1.6504e-07
-3.57924e-22
1.97506e-21
5.97977e-19
2.28603e-16
9.45365e-15
-7.17275e-13
-1.63865e-11
-3.02204e-10
-3.234e-09
-2.2616e-08
3.61438e-06
0.200008
0.599921
0.799957
0.799944
0.7998
0.59957
0.200911
0.00106299
-5.94172e-07
-1.36377e-21
-1.46457e-22
2.98615e-19
1.07998e-16
5.70571e-15
1.22908e-13
-4.73234e-12
-9.80942e-11
-1.49323e-09
-1.38002e-08
-8.34672e-08
3.57553e-05
0.200117
0.599809
0.799799
0.79976
0.799443
0.599258
0.201544
0.00109366
-4.18574e-21
-5.27937e-21
1.43594e-19
4.15518e-17
2.67652e-15
7.43413e-14
1.10546e-12
-2.22363e-11
-5.23314e-10
-6.41075e-09
-5.10998e-08
-2.67923e-07
0.000158649
0.200384
0.599568
0.79944
0.799349
0.798803
0.599721
0.134908
-3.37955e-21
-1.10646e-20
7.88564e-20
7.05648e-18
8.68001e-16
3.47067e-14
6.72874e-13
8.55812e-12
-3.98434e-11
-2.17238e-09
-2.37073e-08
-1.64555e-07
-7.52121e-07
0.000465838
0.20092
0.599254
0.798798
0.798619
0.79805
0.453491
-2.37704e-21
-1.47209e-20
6.70619e-20
3.7796e-18
3.07021e-16
1.29509e-14
3.1859e-13
5.19294e-12
3.35813e-11
-7.29394e-12
-7.6818e-09
-7.60422e-08
-4.71924e-07
-1.9017e-06
0.00107147
0.201559
0.599718
0.798047
0.797776
0.704671
-1.23076e-21
-1.6511e-20
4.24903e-20
1.81383e-18
2.57615e-17
1.19417e-15
7.12971e-14
1.67998e-12
2.06584e-11
3.85719e-11
1.89947e-10
-1.3151e-08
-1.43199e-07
-9.41311e-07
-3.40659e-06
0.00110069
0.134917
0.453495
0.704671
0.704061
)
;

boundaryField
{
    left
    {
        type            fixedValue;
        value           nonuniform List<scalar> 
60
(
1
1
1
1
1
1
0
0
0
0
0
0
0
0
0
0
0
0
0
0
0
0
0
0
0
0
0
0
0
0
0
0
0
0
0
0
0
0
0
0
0
0
0
0
0
0
0
0
0
0
0
0
0
0
0
0
0
0
0
0
)
;
    }
    right
    {
        type            zeroGradient;
    }
    bottom
    {
        type            fixedValue;
        value           nonuniform List<scalar> 
60
(
1
1
1
1
1
1
0
0
0
0
0
0
0
0
0
0
0
0
0
0
0
0
0
0
0
0
0
0
0
0
0
0
0
0
0
0
0
0
0
0
0
0
0
0
0
0
0
0
0
0
0
0
0
0
0
0
0
0
0
0
)
;
    }
    top
    {
        type            zeroGradient;
    }
    frontAndBack
    {
        type            empty;
    }
}


// ************************************************************************* //
