/*--------------------------------*- C++ -*----------------------------------*\
| =========                 |                                                 |
| \\      /  F ield         | OpenFOAM: The Open Source CFD Toolbox           |
|  \\    /   O peration     | Version:  v2106                                 |
|   \\  /    A nd           | Website:  www.openfoam.com                      |
|    \\/     M anipulation  |                                                 |
\*---------------------------------------------------------------------------*/
FoamFile
{
    version     2.0;
    format      ascii;
    arch        "LSB;label=32;scalar=64";
    class       volVectorField;
    location    "0.4";
    object      flux;
}
// * * * * * * * * * * * * * * * * * * * * * * * * * * * * * * * * * * * * * //

dimensions      [0 1 -1 1 0 0 0];

internalField   nonuniform List<vector> 
20
(
(-3.21413 0 0)
(-3.20887 0 0)
(-3.19847 0 0)
(-3.18317 0 0)
(-3.16336 0 0)
(-3.13952 0 0)
(-3.11225 0 0)
(-3.08222 0 0)
(-3.05015 0 0)
(-3.01686 0 0)
(-2.98315 0 0)
(-2.94985 0 0)
(-2.91779 0 0)
(-2.88776 0 0)
(-2.86048 0 0)
(-2.83665 0 0)
(-2.81683 0 0)
(-2.80153 0 0)
(-2.79111 0 0)
(-2.78584 0 0)
)
;

boundaryField
{
    left
    {
        type            calculated;
        value           uniform (-3.21544 0 0);
    }
    right
    {
        type            calculated;
        value           uniform (-2.78451 0 0);
    }
    frontAndBack
    {
        type            empty;
    }
}


// ************************************************************************* //
