/*--------------------------------*- C++ -*----------------------------------*\
| =========                 |                                                 |
| \\      /  F ield         | OpenFOAM: The Open Source CFD Toolbox           |
|  \\    /   O peration     | Version:  v2106                                 |
|   \\  /    A nd           | Website:  www.openfoam.com                      |
|    \\/     M anipulation  |                                                 |
\*---------------------------------------------------------------------------*/
FoamFile
{
    version     2.0;
    format      ascii;
    arch        "LSB;label=32;scalar=64";
    class       volScalarField;
    location    "0.4";
    object      gradTx;
}
// * * * * * * * * * * * * * * * * * * * * * * * * * * * * * * * * * * * * * //

dimensions      [0 -1 0 1 0 0 0];

internalField   nonuniform List<scalar> 
20
(
-3.21413
-3.20887
-3.19847
-3.18317
-3.16336
-3.13952
-3.11225
-3.08222
-3.05015
-3.01686
-2.98315
-2.94985
-2.91779
-2.88776
-2.86048
-2.83665
-2.81683
-2.80153
-2.79111
-2.78584
)
;

boundaryField
{
    left
    {
        type            calculated;
        value           uniform -3.21544;
    }
    right
    {
        type            calculated;
        value           uniform -2.78451;
    }
    frontAndBack
    {
        type            empty;
    }
}


// ************************************************************************* //
