/*--------------------------------*- C++ -*----------------------------------*\
| =========                 |                                                 |
| \\      /  F ield         | OpenFOAM: The Open Source CFD Toolbox           |
|  \\    /   O peration     | Version:  v2106                                 |
|   \\  /    A nd           | Website:  www.openfoam.com                      |
|    \\/     M anipulation  |                                                 |
\*---------------------------------------------------------------------------*/
FoamFile
{
    version     2.0;
    format      ascii;
    arch        "LSB;label=32;scalar=64";
    class       volScalarField;
    location    "0.5";
    object      T;
}
// * * * * * * * * * * * * * * * * * * * * * * * * * * * * * * * * * * * * * //

dimensions      [0 0 0 1 0 0 0];

internalField   nonuniform List<scalar> 
3600
(
1
1
1
1
1
1
0.428571
0.047619
7.14285e-11
-1.8955e-28
-9.68202e-29
-7.73358e-30
-4.92114e-32
3.94288e-30
1.20413e-29
3.87462e-27
2.7526e-25
2.65882e-24
1.23409e-23
-1.77688e-21
4.64834e-20
4.61671e-20
1.83677e-20
2.88203e-21
-8.3303e-23
-4.01826e-20
-8.07259e-20
-3.60383e-20
-4.23469e-21
1.68775e-21
2.39454e-21
9.93429e-22
1.28972e-22
2.33466e-23
-5.78046e-23
-2.61292e-23
-6.39672e-24
-9.56724e-25
8.93614e-25
8.58374e-25
6.31982e-25
1.78489e-25
6.45003e-27
1.06683e-27
2.66857e-28
9.9685e-29
-6.53967e-31
-1.37567e-30
-8.26222e-31
-5.30826e-31
-4.10175e-31
-1.35342e-31
4.74899e-33
-6.16543e-35
-1.96518e-35
-1.52278e-36
-3.09518e-37
-5.07483e-38
2.66271e-39
6.38484e-39
1
1
1
1
1
1
0.928571
0.496032
0.139881
-3.38795e-13
-1.79891e-13
-6.63689e-14
-2.71362e-15
1.03482e-15
-2.71247e-15
-2.83e-15
-1.21994e-15
9.49684e-18
2.12063e-17
8.42351e-18
7.48535e-19
1.94902e-18
2.00695e-18
1.51895e-18
9.80662e-19
5.06813e-19
1.94277e-19
-6.35353e-19
-4.60438e-19
-2.40041e-19
-7.18881e-20
1.36405e-20
7.83649e-21
3.12699e-21
8.33977e-22
-3.39675e-22
-1.97813e-22
-8.85791e-23
-2.77483e-23
-6.34174e-24
2.76002e-25
-7.73952e-26
-1.25135e-25
-1.26864e-25
-7.29065e-26
-9.82538e-27
5.03119e-28
4.55302e-28
2.68442e-28
4.42331e-29
-3.94789e-31
-2.37913e-31
-4.14315e-32
-5.90233e-34
4.70048e-34
2.56099e-34
7.17679e-35
-7.53758e-37
-4.64059e-37
-5.04792e-38
1
1
1
1
1
1
1
0.860119
0.5
0.15997
-4.66877e-10
-2.74434e-10
-1.03285e-10
-2.95602e-12
-1.90326e-13
-1.04906e-13
-4.08943e-14
-3.36919e-17
2.03093e-17
9.77302e-18
-2.23318e-18
-5.98906e-19
3.52012e-18
2.89003e-17
2.37205e-17
1.49327e-17
7.76608e-18
2.34941e-18
-3.4867e-18
-2.87132e-18
-1.59585e-18
-6.13914e-19
7.27891e-20
4.85733e-20
2.08781e-20
5.20059e-21
-9.75545e-22
-5.92112e-22
-2.69514e-22
-8.55146e-23
-1.01398e-23
2.43985e-25
5.96905e-25
2.22707e-25
-1.22153e-25
-6.70425e-26
-2.36717e-26
7.27828e-27
5.09144e-29
-1.4409e-29
-7.22316e-29
-2.85054e-29
-1.22857e-31
-5.74218e-33
2.36593e-34
1.45112e-33
1.01237e-33
2.52577e-34
-3.02736e-37
-8.88963e-38
1
1
1
1
1
1
1
1
0.84003
0.5
0.164993
2.61324e-10
-1.86329e-10
-9.13287e-11
-2.69794e-11
-5.83601e-12
-5.23207e-13
-2.78019e-16
-2.93801e-17
-3.32385e-17
-4.37642e-17
-5.09838e-17
-4.49868e-17
-1.31663e-17
1.37568e-16
1.3988e-16
8.87454e-17
4.30588e-17
1.38696e-17
-1.69048e-17
-1.39395e-17
-7.97158e-18
-3.14096e-18
1.67795e-19
1.29542e-19
6.20636e-20
1.28149e-20
-2.0123e-21
-1.69989e-21
-8.30497e-22
-5.53299e-23
1.17562e-23
1.76625e-23
9.34368e-24
-5.70188e-25
-5.61064e-25
-2.98609e-25
-2.2591e-26
5.21423e-27
4.02135e-27
6.34253e-28
-3.52186e-30
-3.10791e-30
-1.26643e-30
-5.29461e-32
-1.4116e-33
1.18684e-33
5.87819e-34
2.71476e-35
-2.85859e-38
1
1
1
1
1
1
1
1
1
0.835007
0.5
0.166248
7.39518e-10
-6.1067e-10
-3.61251e-10
-1.60214e-10
-5.27643e-11
-1.85221e-12
-3.74445e-16
-5.07795e-16
-7.52743e-16
-9.7105e-16
-9.60612e-16
-8.63272e-16
-5.17296e-16
2.59518e-16
7.21495e-16
4.33272e-16
1.87039e-16
4.92519e-17
-6.36166e-17
-5.03015e-17
-2.76697e-17
-1.01521e-17
4.68345e-19
3.59615e-19
1.60232e-19
2.13179e-20
-1.77682e-21
-1.23251e-21
-2.77716e-22
2.30301e-22
1.60463e-22
7.98533e-23
1.51069e-23
-2.75265e-24
-1.88922e-24
-9.57495e-25
-3.30529e-25
-5.98965e-27
-1.39081e-29
1.4843e-28
8.19196e-29
2.33834e-31
-4.15878e-31
-2.38519e-31
-1.76705e-32
5.56375e-33
3.5815e-33
8.70731e-34
1
1
1
1
1
1
1
1
1
1
0.833752
0.5
0.166562
3.00006e-09
-3.0492e-09
-1.84411e-09
-8.49652e-10
-2.86731e-10
-3.76158e-12
-8.2425e-15
-9.08875e-15
-1.04216e-14
-1.064e-14
-1.03551e-14
-8.98629e-15
-5.11308e-15
-9.24249e-16
2.70164e-15
1.71159e-15
8.00913e-16
2.15963e-16
-1.82489e-16
-1.48854e-16
-8.00855e-17
-2.22756e-17
8.40726e-19
6.5514e-19
2.78552e-19
1.25861e-20
-2.83157e-21
-2.01771e-21
-5.73598e-22
7.40695e-22
4.75342e-22
1.89456e-22
-4.83023e-25
-5.57564e-24
-3.50248e-24
1.54099e-25
2.16999e-25
3.76193e-26
5.13058e-30
1.18142e-29
-8.98373e-31
-1.31898e-30
-9.68558e-31
-3.86031e-31
-2.9391e-32
-2.91478e-33
1.80704e-34
0.428571
0.928571
1
1
1
1
1
1
1
1
1
0.833438
0.5
0.166641
1.18304e-08
-1.30113e-08
-7.90728e-09
-3.65069e-09
-1.17781e-09
-3.78575e-12
-7.30092e-14
-7.61271e-14
-8.61345e-14
-8.2747e-14
-7.6639e-14
-6.05726e-14
-3.19564e-14
-3.691e-15
4.47069e-15
3.64806e-15
2.06114e-15
6.96708e-16
-3.54782e-16
-3.3519e-16
-1.89214e-16
-4.12045e-17
1.34697e-19
1.99641e-19
1.02277e-19
-2.88515e-21
-1.44035e-20
-9.30034e-21
-2.72765e-21
1.62435e-21
1.41045e-21
5.67584e-22
-9.32614e-24
-2.61451e-23
-1.76403e-23
-4.66779e-24
1.53918e-26
5.30662e-27
1.48527e-28
3.38838e-29
7.03443e-30
-3.02823e-30
-2.42166e-30
-1.07859e-30
-2.18237e-32
-2.99555e-33
0.047619
0.496032
0.860119
1
1
1
1
1
1
1
1
1
0.833359
0.5
0.16666
2.91541e-08
-4.63237e-08
-2.826e-08
-1.29935e-08
-3.96024e-09
-5.00627e-12
-4.41432e-13
-5.68446e-13
-1.59918e-12
-1.28696e-12
-8.17354e-13
-4.47299e-13
-1.70632e-13
2.3568e-14
1.71629e-14
1.14862e-14
6.42257e-15
2.18693e-15
-8.09286e-16
-6.33897e-16
-2.73849e-16
-1.44612e-17
1.21157e-18
8.52359e-19
2.83464e-19
-1.33133e-19
-8.07229e-20
-3.52305e-20
-2.51283e-21
1.39774e-21
1.05948e-21
3.17952e-22
-3.33715e-23
-2.10891e-23
-4.34484e-24
3.84676e-27
2.98858e-27
2.96163e-28
2.01028e-28
9.33062e-29
1.35749e-29
-5.50269e-30
-1.72918e-30
-2.66566e-31
-4.24782e-33
7.1504e-11
0.139881
0.5
0.84003
1
1
1
1
1
1
1
1
1
0.83334
0.5
0.166665
6.20796e-08
-1.40927e-07
-8.62707e-08
-3.94036e-08
-1.13113e-08
-1.97006e-11
-1.25123e-12
-1.94038e-12
-4.19534e-12
-6.09275e-12
-4.76433e-12
-2.60926e-12
-5.29669e-13
5.05057e-14
4.56256e-14
3.45048e-14
1.74771e-14
2.84796e-15
-1.8586e-15
-1.3234e-15
-4.08369e-16
1.00029e-17
6.19327e-18
2.72428e-18
5.18459e-19
-4.46283e-19
-2.64009e-19
-1.06312e-19
5.50834e-22
8.02839e-21
5.74698e-21
1.67071e-21
-2.70605e-23
-1.01103e-23
-4.04657e-25
-8.87749e-28
9.07498e-28
7.6401e-28
4.30826e-28
1.74907e-28
1.28303e-29
-1.26465e-30
-8.02259e-31
-1.81444e-31
-1.09544e-13
2.61608e-12
0.15997
0.5
0.835007
1
1
1
1
1
1
1
1
1
0.833335
0.5
0.166666
1.37452e-07
-3.73925e-07
-2.29629e-07
-1.04003e-07
-2.80646e-08
-8.43702e-11
2.03655e-11
8.9603e-12
-9.61061e-13
-8.17135e-12
-7.22541e-12
-3.65102e-12
-1.03642e-13
1.05889e-13
1.25383e-13
8.18178e-14
2.99123e-14
-1.7371e-15
-1.86831e-15
-1.18179e-15
-3.31379e-16
2.87474e-17
1.79127e-17
7.97608e-18
1.47003e-18
-7.5589e-19
-5.52861e-19
-1.89705e-19
4.74182e-21
3.77985e-21
2.2302e-21
2.82279e-22
-8.59273e-23
-7.95366e-24
3.17479e-26
1.15072e-27
1.29751e-27
1.21979e-27
8.72912e-28
4.06722e-28
4.78743e-29
-1.64263e-30
-1.08899e-30
-1.69416e-13
9.85352e-12
-3.44438e-10
0.164993
0.5
0.833752
1
1
1
1
1
1
1
1
1
0.833334
0.5
0.166667
5.19259e-07
-8.79725e-07
-5.41775e-07
-2.42987e-07
-6.16377e-08
-2.18673e-10
1.38021e-10
7.81871e-11
2.72665e-11
-2.48103e-12
-1.82898e-12
7.1656e-14
5.88531e-13
5.17499e-13
3.41677e-13
1.63872e-13
1.28113e-14
-5.55885e-15
-4.04893e-15
-1.74752e-15
-1.74544e-16
1.38539e-16
9.58175e-17
3.74877e-17
-1.74385e-18
-2.55718e-18
-1.3673e-18
-1.8889e-19
2.40328e-21
1.37391e-20
7.81428e-21
5.80186e-22
-2.52117e-24
-9.45196e-25
-4.16886e-26
-2.38106e-26
-1.5279e-26
-3.41347e-27
3.55794e-28
1.95922e-28
6.07861e-29
-4.83495e-31
-1.19875e-13
8.20041e-12
-1.76158e-10
1.83594e-09
0.166248
0.5
0.833438
1
1
1
1
1
1
1
1
1
0.833334
0.500002
0.166669
1.73434e-06
-1.86094e-06
-1.14896e-06
-5.0997e-07
-1.226e-07
-4.32281e-10
5.21136e-10
3.6167e-10
1.58413e-10
4.93646e-11
4.10355e-12
1.39028e-12
1.8707e-12
1.85193e-12
1.1673e-12
2.94153e-13
-4.74657e-15
-7.18045e-15
-5.20356e-15
-1.68705e-15
9.4044e-18
1.5928e-16
1.17086e-16
4.08624e-17
-7.12572e-18
-6.96913e-18
-4.09399e-18
-8.3249e-19
2.55589e-21
-2.56033e-21
8.9419e-23
2.44628e-23
-3.68523e-25
-4.47775e-25
-8.65869e-26
-1.9999e-26
-3.31214e-27
-8.14078e-28
-2.56456e-28
-4.29695e-28
-7.95085e-29
-2.78851e-14
8.89968e-13
-4.0535e-11
-7.37328e-10
7.88071e-09
0.166562
0.5
0.833359
1
1
1
1
1
1
1
1
1
0.833336
0.500007
0.166674
5.44893e-06
-3.58321e-06
-2.21808e-06
-9.81387e-07
-2.3752e-07
1.9072e-10
7.01904e-10
5.69323e-10
3.29235e-10
1.43298e-10
4.32785e-11
1.89227e-12
2.06784e-12
1.98334e-12
1.05602e-12
5.85791e-14
-1.69749e-14
-1.97352e-14
-1.20451e-14
-1.27464e-15
2.73451e-16
2.44884e-16
1.48138e-16
7.60072e-17
-1.40316e-18
-3.62327e-18
-2.15041e-18
-3.9665e-19
7.30964e-20
-4.9271e-23
2.37237e-23
7.92269e-24
5.87931e-25
-1.04817e-25
9.12205e-26
1.5975e-25
1.29735e-25
3.02814e-26
3.89576e-27
-1.79302e-29
-5.18386e-19
-2.73722e-13
-1.65423e-11
-4.44041e-10
-5.19604e-09
3.38615e-08
0.16664
0.5
0.83334
1
1
1
1
1
1
1
1
0.999999
0.833343
0.500025
0.166689
1.60595e-05
-6.34997e-06
-3.96528e-06
-1.79407e-06
-4.61815e-07
2.64176e-09
2.60744e-09
2.25406e-09
1.25934e-09
5.13281e-10
1.08528e-10
-1.81249e-12
-2.20695e-13
2.2544e-13
-1.11178e-13
-1.14729e-13
-3.31424e-14
-6.74641e-15
9.53025e-16
1.07095e-15
7.05607e-16
3.82053e-16
8.71757e-17
-4.40958e-18
-4.56469e-18
-2.37663e-18
-1.68653e-18
-6.29225e-19
4.28749e-22
2.98307e-22
1.13202e-22
-5.52106e-24
-6.79489e-24
-3.78665e-24
-5.53478e-25
7.44429e-26
3.25489e-26
3.58951e-27
2.01763e-28
1.72805e-18
-1.612e-13
-8.03819e-12
-2.06978e-10
-3.13856e-09
-2.84352e-08
1.2101e-07
0.16666
0.5
0.833335
1
1
1
1
0.999999
0.999999
0.999999
0.999999
0.999997
0.833366
0.500079
0.166733
4.34673e-05
-1.04301e-05
-7.38708e-06
-3.3036e-06
-7.21222e-07
2.8434e-09
2.83694e-09
3.55367e-09
2.5916e-09
1.23097e-09
4.17133e-10
-1.28201e-11
-1.17075e-11
-1.00478e-11
-6.19702e-12
-1.86844e-12
2.92871e-14
5.07284e-14
4.16528e-14
1.71492e-14
9.18142e-16
-8.04835e-17
-9.05647e-17
-4.50192e-17
-1.0101e-17
3.14215e-18
9.80214e-19
-1.48601e-21
-3.58457e-22
2.25077e-22
5.98015e-23
-1.77774e-23
-1.43626e-23
-4.84217e-24
7.06378e-27
2.63476e-27
-1.66145e-27
-6.72136e-28
1.76429e-18
-8.41245e-15
-1.15834e-12
-7.36185e-11
-1.455e-09
-1.72302e-08
-1.27539e-07
3.46626e-07
0.166665
0.5
0.833334
1
1
1
0.999999
0.999995
0.999996
0.999996
0.999995
0.99999
0.833432
0.500229
0.166844
0.00010582
-1.5435e-05
-1.19334e-05
-5.11915e-06
-9.74513e-07
-1.00905e-08
1.27775e-09
5.02528e-09
4.14417e-09
2.36783e-09
9.54593e-10
2.40737e-10
9.66447e-11
-5.98914e-12
-8.34016e-12
-5.13396e-12
-9.62983e-13
5.15259e-14
4.15993e-14
2.26439e-14
5.51482e-15
-6.83438e-17
-1.75245e-16
-1.16329e-16
-2.08456e-17
2.03574e-19
4.55925e-20
7.83905e-21
7.92592e-22
3.1728e-22
8.72889e-24
-8.24583e-24
-4.83333e-24
1.64904e-25
9.16724e-26
7.22636e-27
1.68933e-27
5.0783e-19
8.43631e-16
1.69174e-13
-6.17362e-12
-5.06447e-10
-7.98361e-09
-7.7531e-08
-4.83684e-07
8.24877e-07
0.166668
0.500002
0.833335
1
1
0.999999
0.999996
0.999981
0.999984
0.999986
0.999984
0.999967
0.833598
0.500601
0.167094
0.000231663
-2.10533e-05
-1.49018e-05
-6.44824e-06
-1.33398e-06
-5.18986e-08
1.46309e-08
1.43513e-08
1.26809e-08
8.87676e-09
5.42156e-09
2.91879e-09
1.10774e-09
-3.70559e-11
-3.33191e-11
-2.35797e-11
-7.85809e-12
6.25672e-14
4.83883e-14
2.23468e-14
1.82903e-15
1.29643e-16
-8.44911e-17
-4.19323e-17
-6.84925e-20
7.80374e-20
5.82201e-20
1.64571e-20
1.36573e-21
-7.61236e-23
-4.86446e-23
-2.16123e-23
1.53029e-24
1.94623e-24
3.23209e-25
-1.35823e-27
7.57968e-20
1.82628e-15
1.01128e-13
1.08159e-12
-2.6239e-11
-2.72178e-09
-3.58948e-08
-2.94996e-07
-1.58555e-06
1.79315e-06
0.166671
0.500005
0.833338
0.999999
0.999999
0.999996
0.999984
0.999938
0.999946
0.999954
0.999946
0.999896
0.833972
0.50141
0.167603
0.000493259
-3.09335e-05
-2.02728e-05
-9.08925e-06
-2.34196e-06
-3.72424e-08
1.40115e-08
1.31147e-08
9.12039e-09
2.00489e-11
1.82344e-09
1.68434e-09
7.17233e-10
-2.22053e-11
-2.74572e-11
-1.75566e-11
-4.77027e-12
1.55753e-13
8.70034e-14
2.66614e-14
1.80454e-16
4.59405e-17
-1.83963e-17
-7.84392e-18
-1.24665e-18
3.53702e-20
2.60515e-20
1.13815e-20
2.14438e-21
-2.79503e-22
-2.19537e-22
-7.67441e-23
2.24125e-24
1.24981e-24
1.5464e-25
5.56163e-24
1.06791e-15
4.69897e-14
6.45161e-13
3.62403e-12
-6.11575e-11
-1.18654e-08
-1.36232e-07
-9.70049e-07
-4.56686e-06
4.6775e-06
0.166678
0.500013
0.833347
0.999997
0.999995
0.999986
0.999946
0.999806
0.999833
0.999858
0.999835
0.999694
0.834687
0.502897
0.168733
0.00141702
-5.78021e-05
-3.67201e-05
-1.69253e-05
-4.7882e-06
-1.77817e-07
-2.50179e-08
-1.17911e-08
-1.38372e-09
4.88584e-09
4.21872e-09
2.87345e-09
7.32621e-10
-3.89458e-11
-3.45068e-11
-1.98387e-11
-5.21592e-12
2.64042e-13
4.68242e-14
8.96454e-15
2.09654e-15
-7.13159e-18
-9.68505e-18
-5.05113e-18
-4.4108e-19
3.65844e-20
3.21222e-20
1.86025e-20
6.10552e-21
-3.09605e-22
-2.44547e-22
-6.99935e-23
1.75632e-24
7.55753e-25
3.55034e-24
4.55805e-16
1.71932e-14
2.93918e-13
2.1705e-12
7.67122e-12
-1.50807e-10
-4.01129e-08
-4.42699e-07
-2.79977e-06
-1.1702e-05
9.92735e-06
0.166691
0.500042
0.83338
0.99999
0.999984
0.999954
0.999833
0.999436
0.99952
0.999595
0.999533
0.999164
0.835816
0.505299
0.172055
0.00422682
-0.000135473
-8.42004e-05
-3.86332e-05
-1.18557e-05
2.54732e-07
1.56487e-07
9.62869e-08
6.14245e-08
2.98153e-08
7.69318e-09
1.47308e-09
4.80509e-11
-4.27494e-11
-3.59987e-11
-2.00088e-11
-2.90492e-12
7.91994e-15
1.88723e-14
8.85248e-15
3.81087e-17
-2.81477e-17
-2.24942e-17
-5.42867e-18
2.91498e-20
2.78244e-20
2.1034e-20
1.40974e-20
5.65234e-21
-3.65412e-23
-9.47623e-23
-3.13102e-23
6.76671e-25
-2.69525e-22
7.48706e-17
2.04229e-15
9.77725e-14
9.97966e-13
5.00771e-12
2.57877e-10
-3.82722e-09
-1.32175e-07
-1.27482e-06
-7.19497e-06
-2.69587e-05
1.80086e-05
0.16672
0.500123
0.833467
0.999967
0.999946
0.999858
0.99952
0.998478
0.998713
0.998919
0.998763
0.99787
0.837192
0.508837
0.178788
0.00959087
-0.000307552
-0.000189838
-8.74453e-05
-2.71481e-05
2.31964e-06
1.54115e-06
9.53653e-07
4.68516e-07
3.95672e-08
-1.54961e-10
-4.07871e-10
-2.06572e-10
-5.96388e-11
-2.9795e-11
-9.14214e-12
4.48363e-14
4.44152e-14
2.31402e-14
1.42596e-15
2.07979e-16
-2.47835e-17
-1.22782e-17
-2.05741e-18
-2.4247e-19
-6.65071e-20
9.21689e-21
5.98538e-21
1.15468e-21
1.19752e-23
-1.19945e-23
-1.34476e-24
-1.95444e-20
1.33584e-18
4.47859e-17
2.73976e-15
3.26401e-13
2.6253e-12
1.53431e-10
1.89581e-09
-9.1498e-09
-3.69021e-07
-3.25987e-06
-1.66219e-05
-5.63343e-05
3.13122e-05
0.166787
0.500324
0.833674
0.999896
0.999836
0.999595
0.998713
0.99616
0.996775
0.997304
0.996939
0.994917
0.838138
0.513873
0.189569
0.0174275
-0.00059696
-0.000373206
-0.000175276
-4.9224e-05
5.90997e-06
4.2329e-06
2.06059e-06
3.34472e-07
1.07023e-08
-5.39084e-10
-4.21528e-10
-2.23761e-10
-8.94076e-11
-2.68989e-11
-2.15172e-12
2.24331e-14
1.60571e-14
5.91574e-15
2.34462e-15
1.34914e-16
1.00042e-18
-6.99161e-19
-1.96341e-19
-1.39768e-19
-4.45644e-20
2.36782e-21
1.48151e-21
4.61681e-22
-8.8357e-24
-2.0958e-24
-3.15736e-19
3.9141e-19
2.74398e-17
6.43191e-16
5.33793e-14
1.14589e-12
7.05683e-11
1.1359e-09
8.18082e-09
-1.60535e-08
-8.99999e-07
-7.47483e-06
-3.48201e-05
-0.000107581
5.69207e-05
0.166931
0.500781
0.834108
0.999694
0.999533
0.998919
0.996775
0.990929
0.992424
0.993691
0.992887
0.988582
0.837577
0.519858
0.203395
0.0264045
-0.00101537
-0.000744863
-0.000332499
-6.20541e-05
9.99982e-06
7.4706e-06
2.13451e-06
9.10848e-08
5.07131e-09
7.41128e-10
-1.90487e-10
-1.52091e-10
-7.6432e-11
-1.44382e-11
2.29406e-13
1.54061e-13
5.94008e-14
1.36706e-15
5.2188e-17
4.52551e-18
-6.95962e-19
-5.28953e-19
-2.73672e-19
-3.92593e-20
6.63991e-22
6.45643e-22
3.94572e-22
9.14025e-23
-5.36136e-25
-1.76266e-19
-5.45343e-18
1.32696e-17
3.77442e-16
7.54264e-15
4.36838e-13
2.55875e-11
5.20494e-10
4.94614e-09
2.62565e-08
-1.99578e-08
-1.95181e-06
-1.55228e-05
-6.66624e-05
-0.000188976
0.000101396
0.167215
0.501699
0.834895
0.999164
0.998763
0.997304
0.992424
0.979889
0.983282
0.986022
0.984375
0.975798
0.832522
0.523046
0.216373
0.0335383
-0.00146346
-0.00113687
-0.000471045
-5.24773e-05
1.39354e-05
4.40287e-06
2.30161e-07
7.60465e-08
1.89192e-08
3.0225e-09
-1.38438e-10
-1.14987e-10
-6.00088e-11
-1.28562e-11
3.72081e-13
2.80872e-13
8.55313e-14
8.27508e-16
3.28378e-16
2.3803e-17
-8.74922e-19
-7.05153e-19
-1.58569e-19
1.00962e-21
8.20756e-22
4.49635e-22
7.35786e-23
7.3162e-24
-6.88217e-20
-5.33841e-18
-3.94789e-17
1.93061e-16
4.19454e-15
8.45877e-14
2.54993e-12
1.77325e-10
2.26617e-09
1.59976e-08
6.90521e-08
-1.0085e-08
-3.86186e-06
-2.97905e-05
-0.000121405
-0.000304232
0.000177852
0.167755
0.503263
0.836065
0.99787
0.996939
0.993691
0.983282
0.958112
0.96514
0.970653
0.967575
0.951701
0.81697
0.516643
0.221049
0.0347049
-0.00191155
-0.00160328
-0.000637211
-4.52532e-05
9.2308e-07
6.54575e-08
5.11798e-08
3.53473e-08
1.52024e-08
2.51878e-09
-3.49786e-11
-4.71975e-11
-3.02051e-11
-5.76667e-12
1.80532e-13
7.87352e-14
-4.02881e-15
-4.82711e-16
3.24742e-17
8.64804e-17
2.30823e-17
-1.11813e-19
-1.9178e-20
-1.19958e-20
-9.24665e-22
-1.56794e-22
-2.76223e-23
-6.41405e-21
-3.97904e-18
-7.4578e-17
-5.17582e-17
2.1906e-15
7.54884e-14
4.83749e-13
3.96848e-13
7.3108e-10
7.31109e-09
4.23365e-08
1.56606e-07
3.39623e-08
-7.54534e-06
-5.59793e-05
-0.000222278
-0.000440558
0.000399801
0.169146
0.505708
0.837382
0.994917
0.992887
0.986022
0.965139
0.91833
0.927952
0.941776
0.936836
0.90996
0.782795
0.491832
0.208427
0.0262376
-0.0017117
-0.00120551
-0.00033681
-2.25732e-06
4.61114e-09
3.54314e-08
3.22605e-08
2.01933e-08
7.17252e-09
-5.49762e-11
-5.11126e-11
-3.86489e-11
-1.45949e-11
-4.76799e-13
-1.65882e-13
-5.5769e-14
-2.56487e-15
-2.4828e-16
9.98932e-17
6.72463e-17
9.68217e-18
-1.18431e-19
-1.11412e-20
-5.57911e-21
-1.94297e-21
-2.39676e-22
-9.66637e-22
-2.85075e-18
-5.0254e-17
-5.23305e-16
3.83338e-16
7.78588e-14
3.93327e-13
-1.56161e-12
-5.28331e-11
2.19231e-09
1.92219e-08
9.64838e-08
3.16338e-07
3.22721e-07
-1.4267e-05
-9.90314e-05
-0.000342692
-0.000597636
0.00149141
0.172784
0.509297
0.838309
0.988581
0.984373
0.97065
0.927946
0.85941
0.870806
0.893636
0.885692
0.843824
0.72178
0.442371
0.173429
0.00883299
-0.000109071
-0.000173507
-6.84651e-05
-3.49178e-06
4.5109e-08
4.3246e-08
3.42237e-08
1.62355e-08
1.10385e-09
-2.07446e-10
-1.26335e-10
-4.01877e-11
-4.52868e-13
-1.00168e-13
-4.23599e-14
-6.8303e-15
-3.39558e-15
-1.01965e-15
7.12314e-17
1.56584e-17
4.20917e-18
1.2071e-18
1.58503e-19
5.28737e-21
7.32394e-22
3.6903e-20
-1.74808e-18
-3.1751e-17
-4.07413e-16
-2.17904e-15
6.73981e-14
3.14775e-13
-1.28102e-12
-3.40754e-11
-2.53152e-10
5.25223e-09
4.28026e-08
2.30194e-07
3.62727e-07
8.44909e-07
-2.09088e-05
-0.000147795
-0.00047017
-0.000786508
0.00442117
0.179743
0.514456
0.837785
0.975793
0.967569
0.941763
0.870792
0.779528
0.78996
0.814873
0.805962
0.749621
0.632476
0.372653
0.112517
-0.000202088
-0.000220902
-0.000144697
-5.20862e-05
-3.68399e-06
-3.01065e-08
3.07538e-08
2.39089e-08
8.9488e-09
7.07742e-10
-3.59862e-10
-1.9395e-10
-1.39963e-11
1.35772e-12
7.96067e-13
-9.07434e-15
-8.04561e-15
-4.91707e-15
-8.87237e-16
6.55019e-18
9.62504e-19
9.05927e-19
3.04828e-19
4.60415e-23
3.01164e-22
1.18173e-19
-7.71621e-19
-1.92684e-17
-2.48353e-16
-5.77787e-15
2.90233e-14
1.87568e-13
-7.23608e-13
-1.72488e-11
-1.5353e-10
-7.08852e-10
1.00882e-08
1.02254e-07
3.11127e-07
6.81449e-07
1.4362e-06
-2.77581e-05
-0.000201406
-0.000620096
-0.00102085
0.00982326
0.190663
0.520521
0.832749
0.951683
0.936813
0.893595
0.789928
0.677627
0.686113
0.708654
0.700739
0.639071
0.533291
0.292581
0.0695428
-0.000400965
-0.000333861
-0.000186552
-7.00925e-05
-6.04518e-06
5.82682e-08
5.58292e-08
4.21722e-08
1.65022e-08
-7.49981e-10
-6.44796e-10
-2.62259e-10
-3.95562e-12
2.3419e-13
1.73849e-15
-5.51565e-15
-4.37006e-15
-1.98101e-15
-1.31896e-16
1.37239e-18
6.26957e-19
5.90205e-19
8.70191e-20
-8.28497e-23
5.7419e-20
8.17628e-19
-9.2006e-18
-1.29293e-16
-3.93123e-15
-1.2533e-14
4.09519e-14
-2.89463e-13
-6.71064e-12
-7.08587e-11
-4.32624e-10
-1.57695e-09
2.29906e-08
1.68699e-07
4.60162e-07
1.17551e-06
2.18132e-06
-3.62683e-05
-0.000264402
-0.00080477
-0.00131413
0.017619
0.204538
0.523728
0.817185
0.909904
0.885626
0.814761
0.686075
0.558982
0.568147
0.587168
0.584246
0.532548
0.432946
0.215153
0.039114
-0.000486091
-0.000399082
-0.000206154
-4.43117e-05
1.56199e-07
1.52829e-07
1.19606e-07
5.93812e-08
8.38287e-09
-4.7329e-10
-3.43819e-10
-8.11085e-11
-7.27019e-13
-2.73207e-13
-2.99401e-14
-1.21083e-14
-1.35092e-15
-6.79397e-17
2.40644e-17
7.95952e-18
1.14975e-18
2.29717e-19
4.4019e-21
1.09507e-20
8.59083e-19
6.28795e-19
-5.18383e-17
-1.66428e-15
-9.91846e-15
-1.79892e-14
-5.34239e-14
-5.56828e-13
-2.21435e-11
-1.96567e-10
-9.6989e-10
-2.94711e-09
5.41354e-08
2.43601e-07
7.14755e-07
1.8341e-06
2.96549e-06
-4.64247e-05
-0.000341861
-0.00103472
-0.00165828
0.0265112
0.217445
0.517267
0.782975
0.843657
0.805799
0.708525
0.568113
0.434132
0.443793
0.461196
0.47342
0.425513
0.32255
0.143412
0.0188841
-0.000551731
-0.000470256
-0.000236967
-4.36461e-05
1.5163e-07
1.63195e-07
1.11856e-07
4.31225e-08
3.3689e-10
-1.73847e-11
-5.79281e-11
-2.25007e-12
-1.66647e-13
-1.33981e-14
-9.51974e-15
-3.61976e-15
-3.38254e-16
-7.26539e-17
-1.46645e-17
-1.41773e-18
-5.86616e-20
2.62988e-21
-3.48547e-21
3.95332e-19
2.2513e-18
6.05264e-18
-1.87726e-16
-3.49049e-15
-1.32497e-14
-3.96405e-14
-1.00342e-13
-3.01207e-13
-5.57324e-11
-4.41934e-10
-2.04708e-09
-4.58873e-09
8.27195e-08
3.59982e-07
1.13758e-06
2.48839e-06
3.58475e-06
-5.96332e-05
-0.000437848
-0.0013034
-0.0020161
0.0334748
0.221886
0.492317
0.721869
0.749156
0.70044
0.587098
0.443751
0.312381
0.324361
0.34418
0.360164
0.314937
0.219374
0.0890278
0.00699073
-7.6853e-05
-0.000122693
-5.93586e-05
-1.24232e-05
-1.1828e-06
-3.36154e-09
3.04371e-08
8.8335e-09
-1.7431e-10
-2.05088e-11
-9.2841e-12
-8.90547e-13
4.57076e-14
2.85966e-14
2.44207e-15
-9.873e-17
-4.77331e-17
-1.68087e-17
-2.08731e-18
-1.86046e-20
5.96408e-21
-8.6364e-21
4.38617e-20
1.45291e-18
5.25468e-18
1.03834e-16
-1.04519e-16
-5.3284e-15
-2.08832e-14
-6.62222e-14
-3.4412e-14
-1.96519e-13
-1.23891e-10
-9.33441e-10
-3.61716e-09
-5.51118e-09
1.17386e-07
5.54343e-07
1.71797e-06
3.07084e-06
4.00604e-06
-7.61905e-05
-0.000553592
-0.00160546
-0.00215903
0.0346259
0.209067
0.442704
0.632396
0.638666
0.583898
0.460927
0.324242
0.202208
0.216483
0.240531
0.258802
0.215727
0.140007
0.051225
0.00103597
-4.60029e-05
-4.54997e-05
-2.93597e-05
-8.71562e-06
-3.27688e-08
1.38723e-08
7.8778e-09
9.59657e-10
3.01607e-12
-2.73042e-12
-7.16091e-13
3.61153e-13
2.81514e-13
8.60144e-14
-1.19743e-16
-9.42663e-17
-7.2322e-17
-1.64941e-17
3.85691e-19
-1.017e-19
-1.27633e-21
-2.09069e-20
4.32719e-19
2.3846e-18
5.68582e-17
1.41957e-16
8.3774e-17
-8.40089e-15
-1.66472e-14
-3.75849e-15
4.42757e-14
-9.37604e-13
-2.29212e-10
-1.60545e-09
-4.69451e-09
-6.89029e-09
1.48978e-07
8.00003e-07
2.23106e-06
3.64425e-06
4.12501e-06
-0.000101948
-0.000792569
-0.00179342
-0.00209856
0.0266368
0.1742
0.373052
0.533155
0.532325
0.473118
0.343869
0.216378
0.110018
0.128187
0.154867
0.173273
0.138435
0.0831819
0.0247086
-6.02318e-05
-5.93911e-05
-4.93745e-05
-2.43313e-05
-3.00232e-06
1.92782e-08
1.60821e-08
7.04452e-09
3.33886e-10
5.83292e-11
4.70629e-12
-1.11509e-12
1.22629e-13
1.20555e-13
4.5855e-14
-2.55108e-16
-1.08748e-16
-2.19556e-17
-5.29444e-18
-3.63777e-20
3.75806e-23
-1.05862e-20
-7.93965e-20
2.5346e-19
1.19367e-17
8.49272e-17
2.9473e-16
1.15924e-16
4.57554e-16
2.55199e-15
2.74054e-14
1.11688e-13
-4.44883e-12
-3.65682e-10
-2.48253e-09
-6.12067e-09
-5.57886e-09
2.06059e-07
1.0836e-06
2.76309e-06
4.00774e-06
4.11343e-06
-0.000236024
-0.00101292
-0.00182886
-0.0019921
0.00900383
0.113308
0.292867
0.432944
0.425405
0.359848
0.240372
0.128138
0.0421744
0.0623828
0.0912699
0.108041
0.0821092
0.0447382
0.0104692
-6.31814e-05
-6.04065e-05
-4.05332e-05
-1.19325e-05
8.76838e-08
6.18125e-08
2.39988e-08
-1.22946e-11
-1.41258e-10
7.63527e-12
7.86949e-13
-8.36189e-14
1.00988e-14
2.12385e-14
5.92327e-15
-9.7139e-17
-6.78864e-17
-1.78001e-17
-4.72114e-19
8.14512e-23
-1.20462e-21
-5.24341e-20
-9.56927e-20
-5.50131e-19
3.32088e-17
1.89119e-16
2.1213e-16
4.69279e-16
2.15178e-15
1.44647e-14
7.05054e-14
2.15646e-13
-1.48879e-11
-8.91481e-10
-3.89309e-09
-6.33846e-09
-5.87295e-09
3.33346e-07
1.50267e-06
3.25986e-06
4.11188e-06
4.09939e-06
-0.000321079
-0.00111088
-0.00153767
-9.36531e-06
-0.000412035
0.0695974
0.215526
0.323009
0.315049
0.258708
0.154844
0.0623843
0.0011407
0.0152281
0.0457305
0.060035
0.0435527
0.0219143
0.00425161
-5.61617e-05
-4.84737e-05
-2.56649e-05
-4.37437e-06
1.96714e-07
1.03398e-07
8.63584e-09
5.18557e-10
8.76783e-12
7.62915e-12
2.38068e-12
3.97437e-14
4.45217e-14
2.05258e-14
-2.00801e-16
-1.65612e-16
-6.82213e-17
-2.38203e-19
8.11382e-23
3.98594e-23
-2.09423e-20
-7.0091e-20
-4.93705e-19
6.38616e-18
3.82916e-17
1.40477e-16
3.94494e-16
1.54302e-15
7.24513e-15
3.65114e-14
1.58482e-13
3.03499e-13
-6.27603e-11
-1.47245e-09
-4.96354e-09
-6.60188e-09
-1.8489e-09
5.14321e-07
1.91434e-06
3.4638e-06
4.06475e-06
3.50789e-06
-0.000328083
-0.000779783
-0.00049884
-0.000465589
-0.000559116
0.0392607
0.143779
0.220012
0.21611
0.173501
0.0914497
0.0153448
0.000250788
0.00292613
0.0190151
0.0284951
0.020682
0.00996853
0.00168082
-4.20557e-05
-3.3976e-05
-1.50661e-05
-9.04846e-07
4.44816e-08
1.79422e-08
1.99779e-09
5.03853e-11
9.22882e-12
2.71194e-12
6.75611e-14
5.02384e-14
3.3077e-14
6.87744e-15
-2.53026e-16
-1.84887e-16
-3.20242e-17
7.86178e-23
1.26696e-22
-1.33914e-21
-2.63462e-20
-2.41913e-19
-9.47727e-19
-9.73749e-18
3.85905e-17
2.09582e-16
9.37318e-16
3.79989e-15
1.76867e-14
9.00157e-14
2.33308e-13
1.32889e-12
-1.45747e-10
-2.13327e-09
-5.66796e-09
-5.88966e-09
1.39936e-08
6.68452e-07
2.1351e-06
3.62679e-06
3.54952e-06
3.80355e-06
-0.000160282
-0.000315758
-0.000363002
-0.00049904
-0.000638357
0.0190196
0.0894081
0.140458
0.138758
0.10825
0.046292
0.00332753
-4.78593e-05
-4.78477e-05
0.00785866
0.0127267
0.00921601
0.00430246
0.000636956
-2.77963e-05
-2.065e-05
-7.03614e-06
8.69102e-09
1.92346e-09
1.40267e-09
6.65419e-10
1.49072e-12
1.18842e-12
1.81667e-13
5.54567e-14
2.7081e-14
1.43024e-14
2.42261e-15
-2.06672e-16
-4.48754e-17
6.75511e-23
6.71168e-23
-7.76717e-23
-2.56034e-21
-7.10134e-20
-7.052e-19
-6.88456e-18
-3.70636e-17
2.30976e-17
3.92863e-16
1.89176e-15
8.3442e-15
4.51929e-14
1.46929e-13
8.44383e-13
4.41144e-12
-4.52994e-10
-2.97243e-09
-5.34088e-09
-5.30599e-09
2.33593e-08
7.39655e-07
2.26368e-06
3.15857e-06
3.65756e-06
4.0041e-06
-8.08318e-05
-0.00018301
-0.000318263
-0.000530746
-0.00082201
0.0070719
0.0515178
0.0837791
0.0825009
0.0602711
0.0201907
-4.78479e-05
-4.77958e-05
-4.74283e-05
0.00338453
0.005414
0.00390369
0.00176944
0.000234717
-1.56357e-05
-1.06779e-05
-3.09607e-06
6.53253e-10
5.43872e-10
2.66543e-10
4.25549e-11
-8.54815e-13
-7.68323e-13
-3.48371e-13
-3.15129e-14
9.27503e-15
5.4781e-15
4.69764e-16
-1.21313e-17
4.07326e-23
4.72788e-23
-4.49431e-22
1.64687e-22
4.93171e-20
-9.2485e-20
-2.61265e-18
-2.43246e-17
-5.9683e-17
-8.97423e-17
2.92506e-16
2.43489e-15
1.79305e-14
7.73763e-14
4.40745e-13
2.85504e-12
8.28463e-12
-8.07783e-10
-3.1375e-09
-4.71384e-09
-5.30463e-09
2.10195e-08
7.15187e-07
1.87976e-06
2.89373e-06
3.76583e-06
3.71409e-06
-2.78743e-05
-0.000126298
-0.000282159
-0.000647139
-0.000641949
0.000986265
0.0249784
0.0450395
0.04382
0.0288416
0.00795454
-4.74278e-05
-4.68164e-05
-4.45021e-05
0.00135934
0.00217703
0.00156847
0.000692346
8.96228e-05
-7.7655e-06
-5.23215e-06
-1.50022e-06
3.25781e-10
2.62773e-10
1.07704e-10
4.92217e-12
-8.27339e-13
-7.0315e-13
-2.24013e-13
3.16272e-14
2.96091e-15
1.19714e-15
3.17568e-17
7.75826e-24
1.91198e-23
-4.45123e-22
1.44945e-22
2.60571e-20
1.64457e-19
3.68132e-19
-8.2083e-18
-4.15661e-17
-1.08996e-16
-2.43667e-16
-4.75997e-16
-7.72261e-16
2.52117e-14
1.81716e-13
1.45165e-12
5.50663e-12
1.50268e-11
-8.5999e-10
-2.7012e-09
-4.39461e-09
-4.122e-09
-5.91926e-09
4.66182e-07
1.33749e-06
2.69008e-06
3.38009e-06
3.16111e-06
-2.69365e-06
-4.45908e-05
-0.00023292
-0.000292434
0.000141034
-4.69986e-05
0.0106028
0.0220936
0.0208913
0.0128776
0.00342703
-4.44973e-05
-4.20356e-05
-3.52294e-05
0.000478515
0.000806735
0.000591745
0.000258632
4.01856e-05
-3.79048e-06
-2.53633e-06
-7.14126e-07
2.06821e-10
1.53648e-10
5.58357e-11
3.08393e-12
-6.00292e-13
-3.67706e-13
-7.26066e-14
6.4671e-16
6.92621e-16
1.11099e-16
8.78861e-30
1.79791e-24
-2.59253e-22
-7.4525e-22
1.06151e-20
1.1937e-19
6.56222e-19
1.93602e-18
-1.24881e-17
-6.30789e-17
-1.87658e-16
-4.13876e-16
-1.05624e-15
-4.71229e-15
2.2763e-14
5.28031e-13
2.72944e-12
9.6256e-12
2.45172e-11
-6.01463e-10
-2.08192e-09
-3.41629e-09
-5.13111e-09
-1.05225e-08
1.58573e-07
9.63638e-07
2.03085e-06
2.13574e-06
4.49155e-07
6.4176e-07
1.20617e-06
-6.69222e-05
-2.24119e-05
-3.51254e-05
-3.18232e-05
0.00430845
0.0100769
0.00932076
0.00548124
0.00137924
-3.52193e-05
-2.89763e-05
-1.77954e-05
0.000143655
0.000271025
0.000207875
9.65607e-05
2.28872e-05
-1.85606e-06
-1.21214e-06
-3.32461e-07
1.21748e-10
9.18901e-11
3.47209e-11
1.55253e-12
-1.21691e-13
-4.51025e-14
-4.21969e-16
1.99878e-16
1.11887e-16
5.52686e-30
4.23744e-24
-9.52352e-23
-7.90424e-22
-4.84358e-22
3.518e-20
4.10573e-19
1.59359e-18
4.40363e-18
-6.3276e-18
-7.26983e-17
-2.47803e-16
-7.09253e-16
-3.02298e-15
-1.09144e-14
7.04267e-15
6.97536e-13
4.10613e-12
1.928e-11
2.31612e-11
-3.55761e-10
-1.57906e-09
-2.91795e-09
-7.75392e-09
-4.54427e-09
-4.74565e-09
4.35338e-07
1.06151e-06
7.17404e-07
6.70094e-07
6.07764e-07
-3.64711e-06
-1.64023e-05
-2.88884e-05
-2.75354e-05
-2.25162e-05
0.00171067
0.00435608
0.00395352
0.00220815
0.000490294
-2.01762e-05
-1.31123e-05
-1.26361e-05
4.19996e-05
8.20531e-05
6.74553e-05
4.47826e-05
1.22165e-05
-8.76364e-07
-5.59195e-07
-1.49331e-07
7.42569e-11
5.53419e-11
1.8671e-11
2.296e-15