/*--------------------------------*- C++ -*----------------------------------*\
| =========                 |                                                 |
| \\      /  F ield         | OpenFOAM: The Open Source CFD Toolbox           |
|  \\    /   O peration     | Version:  v2106                                 |
|   \\  /    A nd           | Website:  www.openfoam.com                      |
|    \\/     M anipulation  |                                                 |
\*---------------------------------------------------------------------------*/
FoamFile
{
    version     2.0;
    format      ascii;
    arch        "LSB;label=32;scalar=64";
    class       volScalarField;
    location    "1";
    object      T;
}
// * * * * * * * * * * * * * * * * * * * * * * * * * * * * * * * * * * * * * //

dimensions      [0 0 0 1 0 0 0];

internalField   nonuniform List<scalar> 
20
(
3.92493
3.7748
3.62468
3.47456
3.32445
3.17436
3.02428
2.87422
2.72418
2.57416
2.42416
2.27418
2.12422
1.97428
1.82436
1.67445
1.52456
1.37468
1.2248
1.07493
)
;

boundaryField
{
    left
    {
        type            fixedValue;
        value           uniform 4;
    }
    right
    {
        type            fixedValue;
        value           uniform 1;
    }
    frontAndBack
    {
        type            empty;
    }
}


// ************************************************************************* //
