/*--------------------------------*- C++ -*----------------------------------*\
| =========                 |                                                 |
| \\      /  F ield         | OpenFOAM: The Open Source CFD Toolbox           |
|  \\    /   O peration     | Version:  v2106                                 |
|   \\  /    A nd           | Website:  www.openfoam.com                      |
|    \\/     M anipulation  |                                                 |
\*---------------------------------------------------------------------------*/
FoamFile
{
    version     2.0;
    format      ascii;
    arch        "LSB;label=32;scalar=64";
    class       volVectorField;
    location    "0.8";
    object      flux;
}
// * * * * * * * * * * * * * * * * * * * * * * * * * * * * * * * * * * * * * //

dimensions      [0 1 -1 1 0 0 0];

internalField   nonuniform List<vector> 
20
(
(-3.00624 0 0)
(-3.0061 0 0)
(-3.0058 0 0)
(-3.00536 0 0)
(-3.00478 0 0)
(-3.00408 0 0)
(-3.00328 0 0)
(-3.00241 0 0)
(-3.00147 0 0)
(-3.0005 0 0)
(-2.99951 0 0)
(-2.99854 0 0)
(-2.9976 0 0)
(-2.99672 0 0)
(-2.99592 0 0)
(-2.99522 0 0)
(-2.99465 0 0)
(-2.9942 0 0)
(-2.99389 0 0)
(-2.99374 0 0)
)
;

boundaryField
{
    left
    {
        type            calculated;
        value           uniform (-3.00627 0 0);
    }
    right
    {
        type            calculated;
        value           uniform (-2.9937 0 0);
    }
    frontAndBack
    {
        type            empty;
    }
}


// ************************************************************************* //
