/*--------------------------------*- C++ -*----------------------------------*\
| =========                 |                                                 |
| \\      /  F ield         | OpenFOAM: The Open Source CFD Toolbox           |
|  \\    /   O peration     | Version:  v2106                                 |
|   \\  /    A nd           | Website:  www.openfoam.com                      |
|    \\/     M anipulation  |                                                 |
\*---------------------------------------------------------------------------*/
FoamFile
{
    version     2.0;
    format      ascii;
    arch        "LSB;label=32;scalar=64";
    class       volScalarField;
    location    "0.9";
    object      T;
}
// * * * * * * * * * * * * * * * * * * * * * * * * * * * * * * * * * * * * * //

dimensions      [0 0 0 1 0 0 0];

internalField   nonuniform List<scalar> 
3600
(
1
1
1
1
1
1
0.428571
0.047619
7.14285e-11
2.078e-32
-2.49979e-36
3.05044e-33
2.01683e-33
5.15035e-34
4.0185e-39
-3.37236e-39
-1.96555e-39
2.17057e-39
3.91595e-40
-9.38284e-39
-9.55843e-38
-1.96134e-36
-3.70308e-35
-5.35945e-34
-3.29183e-34
-1.29447e-33
-4.13064e-34
1.06042e-32
4.30027e-32
1.70121e-31
6.98125e-32
5.83722e-31
5.17462e-31
3.01071e-31
6.70444e-32
4.51087e-34
6.65807e-34
1.90875e-33
9.73028e-34
2.41075e-34
3.54172e-35
-7.88121e-35
-6.64306e-34
-3.45348e-34
-1.02543e-34
1.50989e-35
2.29046e-34
1.14177e-34
3.41057e-35
-1.23798e-35
-2.75247e-35
-1.29556e-35
-2.08251e-36
9.98469e-38
5.45016e-38
1.24314e-38
-6.13339e-39
-5.75561e-39
-1.98224e-39
7.42346e-48
1
1
1
1
1
1
0.928571
0.496032
0.139881
-4.65897e-16
-1.9967e-16
-3.32784e-17
-2.61398e-24
7.93226e-25
7.93226e-25
1.84272e-24
-3.81292e-24
-4.73876e-24
1.02509e-23
1.17039e-22
2.53839e-22
2.39221e-22
1.38086e-22
1.84371e-23
3.47001e-27
-2.63241e-27
1.2566e-26
2.33555e-27
4.70173e-28
5.84211e-29
2.75619e-30
3.62411e-31
4.77947e-31
-7.35749e-31
-9.61148e-31
-6.05456e-32
-8.4366e-33
-1.98241e-33
2.23088e-32
1.96733e-32
1.33856e-32
7.5222e-33
3.59418e-33
-4.64182e-33
-4.68615e-33
-2.51065e-33
-8.28488e-34
1.09451e-33
1.03786e-33
5.5071e-34
1.90868e-34
-5.64609e-35
-4.07939e-35
-1.88567e-35
1.04891e-36
1.52607e-36
7.97238e-37
2.14458e-37
-1.41088e-38
-6.32651e-39
1
1
1
1
1
1
1
0.860119
0.5
0.15997
-4.79911e-10
-2.87946e-10
-1.34368e-10
-2.87258e-11
-8.4508e-20
-2.23978e-22
-9.32058e-25
-1.96914e-21
-1.86706e-20
-9.84842e-20
-1.93087e-19
-1.27057e-19
-3.82737e-20
-7.12334e-21
-1.76282e-22
-4.73976e-23
6.92114e-24
1.17193e-27
-3.74613e-29
-3.09348e-28
-2.1189e-28
1.0932e-27
9.21323e-28
4.36782e-28
5.20892e-30
-9.89725e-29
-1.68433e-29
-1.63701e-30
-2.2776e-31
5.54028e-31
4.81395e-31
3.3994e-31
2.0532e-31
9.0051e-32
-1.28691e-32
-6.26752e-32
-3.55623e-32
-1.01794e-32
2.60013e-33
6.42316e-33
3.63074e-33
1.2332e-33
-2.52258e-34
-1.5984e-34
-6.40525e-35
2.99469e-36
4.39596e-36
2.15601e-36
1.63801e-37
-2.81695e-38
1
1
1
1
1
1
1
1
0.84003
0.5
0.164993
5.33505e-11
-1.34297e-10
-9.81478e-11
-3.90976e-11
-4.70496e-12
6.02128e-17
3.72978e-17
1.79311e-17
6.9634e-18
1.16311e-18
-6.12457e-19
-3.69817e-19
-4.53612e-20
-4.2565e-21
-2.40508e-21
-3.1686e-22
-4.383e-25
-1.04412e-26
-1.29876e-26
-1.13876e-26
-6.57007e-27
4.07687e-27
4.2545e-27
2.09785e-27
3.12444e-28
-1.12071e-28
-7.88882e-29
-2.15222e-29
-2.98622e-30
6.06079e-30
5.08546e-30
3.62585e-30
2.34345e-30
1.19657e-30
2.85402e-31
-7.56574e-31
-4.53342e-31
-1.42707e-31
-1.5843e-32
3.03478e-32
1.68627e-32
2.7445e-33
-7.67701e-34
-4.66132e-34
-1.64996e-34
1.53427e-35
2.44392e-35
1.2456e-35
-1.83464e-37
1
1
1
1
1
1
1
1
1
0.835007
0.5
0.166248
-1.34573e-10
-1.22354e-10
-7.69034e-11
-3.00747e-11
-3.07773e-12
1.05233e-16
8.61771e-17
5.29537e-17
2.6729e-17
5.44364e-18
-2.31681e-19
-1.78959e-20
1.74476e-20
-1.76022e-21
-6.4753e-23
-7.1186e-24
-2.93438e-24
-3.64417e-25
-2.35535e-25
-1.58253e-25
-8.18751e-26
6.78486e-27
1.02429e-26
4.8414e-27
-8.90207e-28
-8.13595e-28
-5.01983e-28
-2.02093e-28
-4.16405e-29
5.34008e-29
4.26178e-29
2.79676e-29
1.75254e-29
9.2512e-30
2.8601e-30
-4.90193e-30
-3.30444e-30
-1.4546e-30
-2.60668e-31
6.97847e-32
2.7575e-32
2.44639e-33
-1.34651e-33
-8.82555e-34
-3.38105e-34
-6.93686e-37
2.23602e-35
7.81985e-36
1
1
1
1
1
1
1
1
1
1
0.833752
0.5
0.166562
-6.49042e-10
-4.35746e-10
-2.34656e-10
-6.71896e-11
4.96509e-16
4.87891e-16
3.56986e-16
1.81096e-16
7.56277e-17
1.4082e-18
3.39817e-19
1.86622e-19
1.37835e-20
1.25527e-22
-8.30327e-24
-7.29978e-24
-5.2715e-24
-4.53362e-24
-2.99387e-24
-1.4816e-24
-4.29733e-25
5.60561e-26
4.03014e-26
1.08061e-26
-4.68826e-27
-3.50744e-27
-2.16198e-27
-1.08478e-27
-3.38999e-28
2.32907e-28
2.59365e-28
1.64607e-28
9.24969e-29
4.45272e-29
1.53826e-29
-2.8918e-29
-1.98685e-29
-8.56118e-30
-1.46711e-30
5.03431e-31
2.2934e-31
2.60665e-32
-4.26514e-33
-2.6364e-33
-1.24298e-33
1.91276e-35
4.99716e-35
0.428571
0.928571
1
1
1
1
1
1
1
1
1
0.833438
0.5
0.166641
-1.23229e-10
-2.43866e-10
-1.81887e-10
-7.08657e-11
-7.80455e-12
7.11049e-16
6.42014e-16
3.52915e-16
8.54906e-17
-1.011e-18
-3.6815e-19
5.04078e-21
2.49172e-21
5.31846e-22
1.29399e-23
-3.63762e-24
-4.25632e-24
-7.84813e-24
-7.68954e-24
-5.9549e-24
-2.41439e-24
1.86425e-26
5.76211e-26
2.50551e-26
-1.37726e-26
-1.20597e-26
-8.62451e-27
-4.83728e-27
-1.68578e-27
2.53479e-28
1.5844e-27
9.84331e-28
5.01138e-28
2.05046e-28
5.95056e-29
-1.1602e-28
-7.74245e-29
-3.29261e-29
-5.09815e-30
1.81465e-30
8.2971e-31
1.77686e-31
-1.62981e-32
-6.71142e-33
-3.07371e-33
6.80579e-34
0.047619
0.496032
0.860119
1
1
1
1
1
1
1
1
1
0.833359
0.5
0.16666
-2.82959e-10
-2.48251e-10
-1.47724e-10
-5.56599e-11
-4.79036e-12
6.34748e-16
5.69075e-16
2.87354e-16
3.71012e-17
2.99124e-18
6.61581e-19
1.81344e-21
9.473e-22
5.26083e-22
2.34436e-22
9.78456e-23
3.23711e-23
2.44931e-24
-7.04196e-24
-5.7469e-24
-1.99489e-24
2.21404e-25
1.70437e-25
6.98731e-26
-4.04697e-26
-4.42172e-26
-3.13886e-26
-1.77431e-26
-7.4249e-27
-3.79924e-28
5.58475e-27
2.99962e-27
1.80654e-27
8.04037e-28
1.66596e-28
-3.86828e-28
-2.51099e-28
-1.07577e-28
-1.17221e-29
9.02396e-30
3.79902e-30
5.71355e-31
-1.91992e-31
-7.91031e-32
-1.09175e-32
7.14285e-11
0.139881
0.5
0.84003
1
1
1
1
1
1
1
1
1
0.83334
0.5
0.166665
-8.3089e-10
-6.09628e-10
-2.97285e-10
-7.8141e-11
5.67443e-16
5.35832e-16
4.13727e-16
1.43574e-16
1.43547e-18
4.33638e-19
6.41412e-21
2.09733e-21
2.81902e-22
1.99673e-22
2.37068e-22
2.17859e-22
1.51159e-22
7.824e-23
1.88049e-23
3.15201e-24
2.55092e-24
1.50282e-24
7.83193e-25
2.63472e-25
-1.92876e-25
-3.07594e-25
-1.77772e-25
-8.56945e-26
-3.91908e-26
-9.71079e-27
2.05591e-26
1.11374e-26
5.90185e-27
2.69041e-27
1.44956e-28
-7.39367e-28
-5.70796e-28
-2.49055e-28
-1.77232e-29
2.22453e-29
1.28922e-29
1.19462e-30
3.64016e-32
-3.7887e-32
8.4922e-17
-3.13018e-16
0.15997
0.5
0.835007
1
1
1
1
1
1
1
1
1
0.833335
0.5
0.166666
-3.0503e-10
-4.20344e-10
-2.84268e-10
-1.1349e-10
-1.40484e-11
3.06601e-16
2.02939e-16
5.42729e-17
1.52277e-19
5.02907e-20
2.17766e-20
-4.57308e-21
-2.99757e-21
-1.23213e-21
-5.1081e-23
1.27872e-22
8.55587e-23
1.41479e-22
9.74471e-23
5.80855e-23
3.34363e-23
1.37564e-23
5.92927e-24
2.13323e-24
-1.21669e-27
-1.82003e-24
-1.14142e-24
-5.98126e-25
-2.75828e-25
-2.44576e-26
4.74178e-26
3.52249e-26
1.90835e-26
7.13265e-27
-2.14798e-27
-2.0618e-27
-1.38301e-27
-5.48832e-28
2.76314e-29
4.90075e-29
2.5699e-29
8.43719e-32
-4.72228e-31
1.84401e-18
-1.31625e-16
-4.79911e-10
0.164993
0.5
0.833752
1
1
1
1
1
1
1
1
1
0.833334
0.5
0.166667
-4.20692e-10
-3.75528e-10
-2.29638e-10
-8.96678e-11
-9.84328e-12
1.30098e-16
8.31551e-17
2.26811e-17
3.32955e-19
1.78354e-19
4.9744e-20
-2.48591e-20
-1.59933e-20
-7.35577e-21
-2.29215e-21
-6.23189e-22
-2.79428e-23
5.25019e-22
4.51429e-22
3.02665e-22
2.01387e-22
1.21989e-22
7.03758e-23
2.748e-23
2.77073e-24
-1.11543e-23
-6.91851e-24
-3.49072e-24
-1.33231e-24
1.00509e-25
1.84146e-25
1.27464e-25
5.72096e-26
1.41646e-26
-9.12603e-27
-8.2412e-27
-4.91649e-27
-1.64296e-27
1.86133e-28
1.62701e-28
6.27786e-29
-2.16722e-30
6.66174e-20
-2.04547e-17
-2.87595e-10
5.80283e-11
0.166248
0.5
0.833438
1
1
1
1
1
1
1
1
1
0.833333
0.5
0.166667
-9.65746e-10
-7.46266e-10
-3.83932e-10
-1.16174e-10
-3.05518e-15
5.47462e-17
3.41248e-17
9.79082e-18
1.34755e-18
5.16769e-19
2.89321e-20
-3.84509e-20
-3.12991e-20
-1.87684e-20
-9.7503e-21
-4.34193e-21
-1.09547e-21
9.62338e-22
1.2263e-21
1.11212e-21
1.10783e-21
8.61184e-22
4.26862e-22
1.51243e-22
8.11243e-24
-5.6812e-23
-3.43996e-23
-1.54084e-23
-4.37044e-24
8.30841e-25
8.17911e-25
4.67966e-25
1.79501e-25
-6.46838e-27
-6.62348e-27
-9.11551e-27
-7.42702e-27
-1.95568e-27
2.62261e-28
2.03033e-28
3.90468e-29
7.36311e-25
1.81164e-24
-1.32859e-10
-1.33308e-10
-1.47978e-10
0.166562
0.5
0.833359
1
1
1
1
1
1
1
1
1
0.833333
0.5
0.166667
-4.63625e-10
-5.27427e-10
-3.86797e-10
-1.54956e-10
-1.9438e-11
4.18934e-17
2.70005e-17
1.21228e-17
4.45281e-18
1.35642e-18
-1.45249e-19
-1.64328e-19
-1.49397e-19
-9.70374e-20
-4.95229e-20
-1.99034e-20
-2.56146e-21
-1.69969e-22
4.66879e-22
8.37086e-22
1.55337e-21
2.58892e-21
1.63796e-21
6.87803e-22
1.10633e-22
-2.4702e-22
-1.44745e-22
-6.09874e-23
-1.56678e-23
6.12276e-24
4.13116e-24
1.9619e-24
5.65571e-25
-2.87706e-25
-1.34634e-25
-4.13134e-26
-1.32198e-26
1.46566e-27
9.59027e-28
3.4808e-28
-4.65836e-28
1.08633e-24
-2.61455e-11
-8.93757e-11
-1.2714e-10
-6.77105e-10
0.166641
0.5
0.83334
1
1
1
1
1
1
1
1
1
0.833333
0.5
0.166667
-5.27353e-10
-4.80636e-10
-3.04777e-10
-1.19608e-10
-1.2502e-11
1.63302e-16
1.01179e-16
4.87479e-17
1.8669e-17
2.68038e-18
-1.63063e-19
-1.80431e-19
-2.53616e-19
-1.9617e-19
-1.09896e-19
-4.94515e-20
-2.0792e-20
-1.30542e-20
-8.34514e-21
-3.99802e-21
-3.58349e-23
5.51868e-21
4.02796e-21
1.84916e-21
3.03258e-22
-6.3178e-22
-3.84125e-22
-1.72246e-22
-4.72304e-23
2.39678e-23
1.45189e-23
6.4555e-24
1.02448e-24
-5.05572e-25
-2.56082e-25
-1.0216e-25
-5.69619e-27
4.24316e-27
2.12872e-27
-4.64495e-28
5.06014e-25
-1.98713e-19
-3.40264e-11
-7.32755e-11
-4.60726e-10
-1.25489e-10
0.16666
0.5
0.833335
1
1
1
1
1
1
1
1
1
0.833333
0.5
0.166667
-9.24295e-10
-7.64666e-10
-4.24114e-10
-1.35586e-10
-2.96654e-12
1.02447e-15
6.22277e-16
2.91602e-16
1.03354e-16
5.81712e-18
6.23279e-19
4.84687e-20
-4.15914e-19
-3.63159e-19
-2.6648e-19
-1.79135e-19
-1.23892e-19
-9.35511e-20
-6.5767e-20
-3.82788e-20
-1.24223e-20
1.12702e-20
7.98517e-21
3.95569e-21
6.8501e-22
-1.67871e-21
-1.0375e-21
-4.7411e-22
-7.75464e-23
6.36988e-23
4.08911e-23
1.72161e-23
8.42846e-25
-7.96156e-25
-5.12054e-25
-1.59238e-25
2.30297e-26
1.20335e-26
-4.54283e-28
1.11943e-25
4.00307e-20
-3.01194e-12
-2.59976e-11
-2.096e-10
-3.0296e-10
-3.03052e-10
0.166665
0.5
0.833334
1
1
1
1
1
1
1
1
1
0.833333
0.5
0.166667
-2.09591e-10
-6.65895e-10
-4.14154e-10
-1.52841e-10
-1.74757e-11
5.53216e-15
3.35319e-15
1.55539e-15
5.29611e-16
9.49955e-18
3.97837e-18
1.56277e-18
-1.26865e-18
-1.0787e-18
-1.03137e-18
-8.46789e-19
-6.49482e-19
-4.87028e-19
-3.34544e-19
-1.84879e-19
-5.85926e-20
4.31929e-20
2.72605e-20
1.18562e-20
8.98797e-22
-3.6016e-21
-2.49377e-21
-1.07673e-21
-6.40657e-23
1.40841e-22
9.98394e-23
4.01675e-23
-1.69164e-24
-1.93813e-24
-9.92975e-25
-2.22645e-25
6.7214e-26
-4.19079e-28
1.66974e-26
2.35581e-20
3.13456e-19
-8.32697e-13
-4.32997e-11
-1.87362e-10
-2.63264e-10
-8.3912e-10
0.166666
0.5
0.833333
1
1
1
1
1
1
1
1
1
0.833333
0.5
0.166667
-1.461e-10
-1.07368e-09
-6.61557e-10
-2.74687e-10
-6.05095e-11
2.40417e-14
1.46204e-14
6.76513e-15
2.17843e-15
4.00458e-17
1.98986e-17
7.39349e-18
-8.5894e-18
-5.76708e-18
-4.80913e-18
-3.84959e-18
-3.01091e-18
-2.18911e-18
-1.39681e-18
-6.68479e-19
-2.70015e-20
8.02882e-20
6.72303e-20
3.17156e-20
-3.65724e-21
-8.57982e-21
-6.04727e-21
-2.40023e-21
4.05275e-22
4.2732e-22
2.59876e-22
8.89959e-23
-8.68961e-24
-5.31696e-24
-1.74825e-24
-2.03555e-25
-1.80695e-28
-2.30048e-26
1.06369e-20
1.87818e-19
1.93978e-18
-1.65206e-17
-7.29709e-11
-1.54903e-10
-6.16332e-10
-3.11734e-10
0.166667
0.5
0.833333
1
1
1
1
1
1
1
1
1
0.833333
0.5
0.166667
2.01558e-10
-2.26786e-09
-1.39962e-09
-6.1932e-10
-1.59373e-10
8.82178e-14
5.38889e-14
2.4866e-14
7.69949e-15
1.87201e-16
7.87114e-17
7.65149e-18
-2.42553e-17
-2.35439e-17
-2.11126e-17
-1.68958e-17
-1.26983e-17
-8.60436e-18
-4.89779e-18
-1.7027e-18
5.56433e-19
3.95958e-19
2.29958e-19
8.8555e-20
-2.96431e-20
-2.81093e-20
-1.64084e-20
-5.6354e-21
2.17415e-21
1.54881e-21
7.40997e-22
1.49844e-22
-2.65082e-23
-1.57882e-23
-3.65603e-24
-8.94415e-30
-1.39337e-25
3.70954e-21
8.62255e-20
1.17729e-18
1.16953e-17
-7.90764e-12
-5.77159e-11
-3.03042e-10
-4.20852e-10
-4.2085e-10
0.166667
0.5
0.833333
1
1
1
1
1
1
1
1
1
0.833333
0.5
0.166667
2.22682e-09
-5.2554e-09
-3.24675e-09
-1.46004e-09
-3.85903e-10
2.88787e-13
1.7704e-13
8.14706e-14
2.36009e-14
1.85104e-15
1.66401e-16
-9.86163e-17
-9.76025e-17
-9.23672e-17
-7.90811e-17
-6.25872e-17
-4.57285e-17
-2.88473e-17
-1.40832e-17
-2.84983e-19
1.59506e-18
1.24913e-18
6.64495e-19
1.62775e-19
-8.8158e-20
-7.10293e-20
-3.72712e-20
-1.0928e-20
4.15769e-21
2.85092e-21
1.23801e-21
1.20298e-22
-3.71307e-23
-1.98437e-23
-1.77833e-30
-5.76226e-25
1.32693e-22
2.76962e-20
5.45796e-19
1.11444e-17
-4.39799e-17
-4.56975e-12
-8.00778e-11
-2.86717e-10
-3.76061e-10
-9.58124e-10
0.166667
0.5
0.833333
1
1
1
1
1
1
1
1
1
0.833333
0.5
0.166667
4.87636e-09
-1.21541e-08
-7.51343e-09
-3.38463e-09
-8.84809e-10
8.75141e-13
5.37702e-13
2.45872e-13
6.95761e-14
9.61339e-15
-2.37137e-15
-1.47071e-15
-7.88035e-16
-4.11911e-16
-2.6699e-16
-1.86692e-16
-1.31416e-16
-7.68767e-17
-2.88354e-17
9.4028e-18
7.16413e-18
4.19056e-18
1.72781e-18
-1.46387e-19
-1.95488e-19
-1.57134e-19
-8.06042e-20
-1.2372e-20
6.89111e-21
4.85689e-21
1.81269e-21
-1.75869e-22
-9.41828e-23
-4.54527e-31
-1.0986e-23
5.25517e-23
2.88886e-21
1.8406e-19
6.16674e-18
4.94432e-17
-1.99432e-17
-1.43088e-15
-1.14592e-10
-2.30267e-10
-7.37686e-10
-3.89679e-10
0.166667
0.5
0.833333
1
1
1
1
1
1
1
1
1
0.833333
0.5
0.166667
1.13599e-08
-2.71182e-08
-1.67798e-08
-7.53622e-09
-1.92054e-09
2.49558e-12
1.53523e-12
6.99794e-13
2.16459e-13
9.76393e-15
-1.07957e-14
-6.61816e-15
-3.27864e-15
-1.37741e-15
-7.89141e-16
-5.08466e-16
-3.32736e-16
-1.73029e-16
-1.83058e-17
2.8058e-17
2.1761e-17
1.20384e-17
2.93567e-18
-1.15032e-18
-7.88327e-19
-4.45375e-19
-1.79867e-19
1.1294e-20
1.37618e-20
7.3566e-21
1.55137e-21
-3.33219e-22
-1.48184e-31
-1.03824e-23
-9.36485e-23
9.97576e-22
1.92418e-20
2.50613e-18
3.672e-17
7.03884e-17
3.7697e-16
-1.4353e-11
-9.01367e-11
-3.79832e-10
-5.29281e-10
-2.94011e-10
0.166667
0.5
0.833333
1
1
1
1
1
1
1
1
1
0.833333
0.5
0.166667
2.50755e-08
-5.7811e-08
-3.58092e-08
-1.60041e-08
-3.95508e-09
6.74279e-12
4.15573e-12
1.91215e-12
5.74113e-13
7.66697e-15
-3.04411e-14
-1.87997e-14
-9.26186e-15
-3.81492e-15
-2.11056e-15
-1.30576e-15
-7.76092e-16
-3.34164e-16
8.13543e-17
7.85222e-17
4.80735e-17
2.29805e-17
4.51612e-19
-2.79354e-18
-2.27274e-18
-1.18122e-18
-1.94134e-19
2.82464e-20
2.21906e-20
1.00461e-20
4.6394e-22
-1.03932e-31
-8.83395e-24
-1.03133e-22
-7.94869e-22
5.24784e-21
5.99054e-19
1.6829e-17
5.80105e-17
3.74442e-16
3.98216e-16
-1.00186e-11
-1.13715e-10
-3.46144e-10
-6.38895e-10
-3.09266e-10
0.166667
0.5
0.833333
1
1
1
1
1
1
1
1
1
0.833333
0.5
0.166667
4.91349e-08
-1.17649e-07
-7.29505e-08
-3.24202e-08
-7.7582e-09
1.75017e-11
1.08284e-11
4.98804e-12
1.47411e-12
-1.08489e-14
-6.44473e-14
-4.27375e-14
-2.21121e-14
-1.00571e-14
-5.44804e-15
-3.30707e-15
-1.73217e-15
-5.77529e-16
3.95261e-16
2.78184e-16
1.24341e-16
3.98075e-17
-1.14093e-17
-1.00936e-17
-6.31028e-18
-2.29123e-18
1.4749e-19
1.08369e-19
5.92589e-20
1.1125e-20
1.37662e-30
-6.56501e-24
-9.69407e-23
-8.03908e-22
-2.64082e-21
-4.35054e-20
5.21167e-18
3.23833e-17
2.87153e-16
5.31407e-16
3.0699e-15
-3.93861e-13
-1.17841e-10
-4.01654e-10
-1.22771e-09
1.7454e-09
0.166667
0.5
0.833333
1
1
1
1
1
1
1
1
1
0.833333
0.5
0.166667
9.26265e-08
-2.29154e-07
-1.42237e-07
-6.28486e-08
-1.45776e-08
4.50598e-11
2.79513e-11
1.28978e-11
3.79345e-12
-5.33077e-14
-1.07708e-13
-8.24281e-14
-4.55093e-14
-2.47563e-14
-1.43222e-14
-8.45799e-15
-3.8623e-15
-3.76585e-16
5.67754e-16
4.14708e-16
2.12003e-16
5.98943e-17
-3.92199e-17
-2.84549e-17
-1.24222e-17
-1.81239e-18
1.973e-19
1.5296e-19
5.76628e-20
2.82844e-29
-4.2875e-24
-7.66204e-23
-7.08311e-22
-2.8436e-21
-5.19918e-20
5.49166e-20
1.28906e-17
1.39761e-16
4.4153e-16
2.09653e-15
1.83322e-14
-4.08591e-12
-1.54651e-10
-7.58199e-10
-3.19741e-09
3.90961e-09
0.166667
0.5
0.833333
1
1
1
1
1
1
1
1
1
0.833333
0.5
0.166667
1.66533e-07
-4.29248e-07
-2.66708e-07
-1.17218e-07
-2.64506e-08
1.20227e-10
7.45787e-11
3.44634e-11
1.022e-11
-1.01675e-13
-1.47738e-13
-1.21734e-13
-8.84737e-14
-5.94354e-14
-3.65563e-14
-1.86512e-14
-7.30798e-15
6.44207e-16
1.64505e-15
1.2093e-15
5.12434e-16
4.41631e-17
-5.63183e-17
-4.19955e-17
-1.60647e-17
-1.9605e-19
4.04926e-19
2.29742e-19
8.48255e-28
-2.29788e-24
-5.05836e-23
-5.15345e-22
-2.52706e-21
-3.14722e-20
-1.92387e-19
1.99658e-18
4.85129e-17
2.50334e-16
1.20686e-15
1.13687e-14
9.91183e-14
-2.2938e-11
-3.25371e-10
-1.9674e-09
-9.00427e-09
1.15222e-08
0.166667
0.5
0.833333
1
1
1
1
1
1
1
1
1
0.833333
0.5
0.166667
2.77798e-07
-7.78698e-07
-4.84337e-07
-2.11947e-07
-4.68517e-08
3.40986e-10
2.1095e-10
9.74699e-11
2.92398e-11
-1.38338e-13
-1.80087e-13
-1.67893e-13
-1.50889e-13
-1.22009e-13
-7.92289e-14
-3.94314e-14
-1.26462e-14
1.22163e-15
1.92099e-15
1.53658e-15
5.96926e-16
-1.07198e-18
-5.68116e-17
-4.6655e-17
-1.17937e-17
1.32271e-18
8.66483e-19
2.26093e-27
-6.04867e-25
-2.66187e-23
-3.339e-22
-1.77702e-21
-1.48308e-20
-1.77087e-19
2.68084e-19
4.68076e-18
1.02443e-16
5.93984e-16
5.60295e-15
6.05238e-14
4.75874e-13
-8.25095e-11
-8.9004e-10
-5.54176e-09
-2.47747e-08
3.14136e-08
0.166667
0.5
0.833333
1
1
1
1
1
1
1
1
1
0.833333
0.5
0.166667
4.28017e-07
-1.38092e-06
-8.59764e-07
-3.75215e-07
-8.20524e-08
1.00823e-09
6.21761e-10
2.86764e-10
8.60025e-11
-1.70857e-13
-1.69906e-13
-1.67668e-13
-1.6369e-13
-1.45167e-13
-1.09049e-13
-6.33579e-14
-2.37296e-14
3.43144e-15
2.98502e-15
1.7001e-15
-2.60369e-16
-2.63906e-16
-1.94739e-16
-7.11741e-17
3.8892e-18
3.05153e-18
1.43737e-26
-1.01619e-26
-9.1094e-24
-1.73042e-22
-1.14691e-21
-5.56635e-21
-9.37872e-20
-6.26145e-19
4.5004e-19
2.23695e-17
2.25734e-16
2.26791e-15
2.86503e-14
2.90038e-13
2.03284e-12
-2.59598e-10
-2.53951e-09
-1.52637e-08
-6.48471e-08
7.58028e-08
0.166667
0.5
0.833333
1
1
1
1
1
1
1
1
1
0.833334
0.500001
0.166668
6.17729e-07
-2.42032e-06
-1.50811e-06
-6.57638e-07
-1.43765e-07
2.96599e-09
1.82579e-09
8.39351e-10
2.47553e-10
-1.21551e-13
-1.44531e-13
-1.44226e-13
-1.3638e-13
-1.0988e-13
-6.67232e-14
-2.63609e-14
1.04241e-14
8.93717e-15
-3.1378e-16
-2.99686e-15
-2.28714e-15
-1.28746e-15
-4.36101e-16
9.31599e-18
9.01451e-18
9.29997e-26
-6.90938e-27
6.09078e-24
-3.33573e-23
-5.68595e-22
-2.48936e-21
-3.56778e-20
-3.60988e-19
-1.45969e-18
2.06443e-18
6.08438e-17
5.35617e-16
1.0496e-14
1.35742e-13
1.24014e-12
7.7691e-12
-7.5083e-10
-6.9975e-09
-4.00033e-08
-1.60653e-07
1.74273e-07
0.166667
0.5
0.833333
1
1
1
1
1
1
1
1
1
0.833334
0.500001
0.166669
8.38114e-07
-4.23663e-06
-2.641e-06
-1.1526e-06
-2.53771e-07
8.33499e-09
5.12967e-09
2.34753e-09
6.72373e-10
-5.29551e-14
-5.17046e-14
-4.97978e-14
-3.52277e-14
-4.19549e-15
4.013e-14
6.5683e-14
5.60241e-14
2.31252e-14
-1.26565e-14
-1.20737e-14
-7.45607e-15
-3.24698e-15
9.6927e-17
1.05038e-16
1.61856e-25
6.89845e-26
3.76713e-24
1.62482e-23
-1.1082e-22
-8.71285e-22
-5.85786e-21
-1.45361e-19
-1.27925e-18
-5.60734e-20
1.68999e-17
1.64126e-16
1.31566e-15
4.74921e-14
5.78113e-13
4.74882e-12
2.67948e-11
-2.0347e-09
-1.82878e-08
-9.92377e-08
-3.769e-07
3.79529e-07
0.166668
0.500001
0.833333
1
1
1
1
1
1
1
1
1
0.833335
0.500003
0.16667
1.29629e-06
-7.45571e-06
-4.64755e-06
-2.03144e-06
-4.51034e-07
2.1868e-08
1.34694e-08
6.12878e-09
1.68843e-09
7.7542e-13
2.63932e-13
3.34373e-13
9.49248e-13
9.04886e-13
6.67301e-13
4.40676e-13
2.40037e-13
7.52052e-14
-6.80092e-14
-4.84535e-14
-2.36707e-14
-3.2449e-15
3.71637e-16
1.37059e-25
1.28392e-25
1.19546e-24
8.93586e-24
2.13244e-23
1.90804e-23
1.7026e-22
-2.42542e-20
-6.01808e-19
-1.62853e-18
4.3739e-18
6.68612e-17
5.47392e-16
3.29522e-15
1.93172e-13
2.20414e-12
1.64104e-11
8.41837e-11
-5.18413e-09
-4.5187e-08
-2.3312e-07
-8.38958e-07
7.81391e-07
0.166669
0.500001
0.833333
1
1
1
1
1
1
1
1
1
0.833336
0.500008
0.166673
2.51528e-06
-1.31933e-05
-8.22109e-06
-3.59737e-06
-8.00932e-07
5.30648e-08
3.2728e-08
1.47868e-08
3.89061e-09
7.26913e-12
8.45858e-13
1.30976e-12
2.48321e-12
4.32809e-12
3.61485e-12
1.98654e-12
8.41751e-13
1.5126e-13
-2.69371e-13
-1.92312e-13
-7.23581e-14
2.46123e-15
3.81783e-26
8.44408e-26
9.87397e-26
1.9183e-24
1.21642e-23
2.48534e-23
1.20704e-22
1.03566e-21
-1.36668e-19
-9.67438e-19
-2.91529e-18
1.74221e-17
2.08379e-16
1.43104e-15
1.03747e-14
6.9416e-13
7.56973e-12
5.16483e-11
2.43061e-10
-1.24416e-08
-1.05654e-07
-5.19544e-07
-1.7758e-06
1.53264e-06
0.166671
0.500003
0.833333
0.999999
1
1
1
1
1
1
1
1
0.833341
0.500017
0.16668
5.26273e-06
-2.33297e-05
-1.45308e-05
-6.35624e-06
-1.40473e-06
1.18843e-07
7.34043e-08
3.28871e-08
8.2329e-09
3.28748e-11
-8.18452e-12
-3.13436e-12
2.29229e-12
7.49898e-12
8.67699e-12
6.19015e-12
2.60755e-12
3.7843e-13
-4.35731e-13
-3.05247e-13
-5.44116e-14
-4.50938e-27
1.99668e-26
2.1192e-26
7.2387e-27
3.82802e-24
1.6428e-23
7.40656e-23
6.34216e-22
2.8628e-21
-3.74289e-19
-1.89464e-18
-6.80423e-18
1.66585e-17
4.59231e-16
1.8902e-15
4.66845e-14
2.37528e-12
2.37888e-11
1.49451e-10
6.50099e-10
-2.81907e-08
-2.34237e-07
-1.10093e-06
-3.58238e-06
2.86852e-06
0.166674
0.500005
0.833333
0.999999
1
1
1
1
1
1
1
0.999999
0.833349
0.500035
0.166694
1.15207e-05
-4.0821e-05
-2.54166e-05
-1.10949e-05
-2.41244e-06
2.45919e-07
1.52113e-07
6.75133e-08
1.61606e-08
8.62267e-11
-5.85351e-11
-3.18132e-11
-7.42068e-12
6.95245e-12
1.25984e-11
1.10286e-11
5.51934e-12
7.52733e-13
-4.67407e-13
-2.38422e-13
2.53735e-28
1.66906e-28
-4.34717e-27
-1.1468e-26
-5.57513e-26
6.21275e-24
3.76001e-23
3.10849e-22
2.57286e-21
-3.72622e-20
-8.57113e-19
-4.48404e-18
-2.03653e-17
-3.0862e-17
1.25598e-15
2.177e-16
9.94002e-14
7.29968e-12
6.86704e-11
4.00579e-10
1.62115e-09
-6.04531e-08
-4.93512e-07
-2.22314e-06
-6.90325e-06
5.12882e-06
0.166681
0.500009
0.833334
0.999998
1
1
1
0.999999
0.999999
0.999999
0.999999
0.999998
0.833366
0.500069
0.166728
3.16858e-05
-6.99691e-05
-4.35647e-05
-1.89809e-05
-4.13071e-06
4.7131e-07
2.92045e-07
1.28924e-07
3.11457e-08
1.42294e-10
-2.15993e-10
-1.24893e-10
-4.59039e-11
2.67422e-12
1.15815e-11
1.03452e-11
4.83537e-12
-7.63828e-14
-3.10613e-13
8.51786e-31
-3.62888e-28
-3.75187e-27
-1.05836e-26
-4.29294e-26
-2.8042e-25
1.29552e-23
1.26717e-22
2.12535e-21
-4.39114e-21
-2.30995e-19
-2.32318e-18
-1.47798e-17
-2.80398e-16
6.57706e-16
3.8e-16
-2.57392e-14
8.95869e-14
2.06122e-11
1.83601e-10
1.00101e-09
3.78961e-09
-1.2298e-07
-9.9037e-07
-4.28769e-06
-1.27364e-05
8.77606e-06
0.166691
0.500016
0.833335
0.999997
1
1
0.999999
0.999997
0.999997
0.999998
0.999997
0.999995
0.833395
0.500127
0.166808
8.74762e-05
-0.000116544
-7.26572e-05
-3.1965e-05
-7.37212e-06
8.3882e-07
5.22978e-07
2.34598e-07
6.05969e-08
1.34551e-10
-5.80161e-10
-3.4499e-10
-1.38717e-10
-2.04541e-11
9.34229e-12
7.5262e-12
2.50006e-12
-7.95882e-13
7.43197e-31
-1.68917e-28
-1.9082e-27
-7.37313e-27
-2.67946e-26
-2.84064e-25
-3.63693e-24
3.24623e-23
9.8561e-22
5.76486e-21
-5.83807e-20
-9.69691e-19
-8.56424e-18
-2.70279e-16
-3.31176e-17
-4.30656e-17
-1.59799e-14
-4.59897e-14
-3.90412e-13
5.27342e-11
4.56305e-10
2.34373e-09
8.34112e-09
-2.37883e-07
-1.89737e-06
-7.91647e-06
-2.25523e-05
1.43804e-05
0.166708
0.500027
0.833339
0.999999
0.999999
0.999999
0.999997
0.999991
0.999992
0.999993
0.999992
0.999987
0.83344
0.500226
0.166978
0.000212285
-0.000187542
-0.000125052
-5.62112e-05
-1.2741e-05
1.38793e-06
9.77895e-07
4.38326e-07
9.68109e-08
-2.57357e-11
-1.26057e-09
-7.62516e-10
-3.26952e-10
-7.56229e-11
5.26401e-12
2.75772e-12
-4.3199e-13
2.74772e-31
1.68583e-29
-4.29311e-28
-3.43136e-27
-1.44255e-26
-1.66611e-25
-3.52162e-24
-2.3463e-23
2.64957e-22
3.42079e-21
2.98238e-20
-2.66758e-19
-3.88536e-18
-1.6324e-16
-2.99579e-16
-5.75364e-16
-8.37956e-15
-3.82857e-14
-2.57352e-13
-1.5772e-12
1.26414e-10
1.06236e-09
5.16593e-09
1.73535e-08
-4.38587e-07
-3.47851e-06
-1.40263e-05
-3.84232e-05
2.25671e-05
0.166735
0.500046
0.833352
0.999999
0.999999
0.999997
0.999992
0.999976
0.99998
0.999983
0.999981
0.999967
0.833509
0.500406
0.167307
0.000454382
-0.000285632
-0.000210175
-9.21555e-05
-1.82089e-05
2.06576e-06
1.5949e-06
6.87144e-07
1.30611e-07
-2.95433e-10
-2.32207e-09
-1.58981e-09
-7.14563e-10
-1.65596e-10
-9.647e-13
-1.04723e-12
5.25579e-33
9.84223e-30
9.50481e-29
-8.36906e-28
-5.98271e-27
-7.04374e-26
-2.11376e-24
-4.03833e-23
2.32041e-23
1.48114e-21
1.81085e-20
1.56802e-19
-4.1102e-19
-4.26146e-17
-1.83927e-16
-5.49058e-16
-4.18167e-15
-2.53899e-14
-1.49118e-13
-9.9897e-13
-5.14102e-12
2.8356e-10
2.32725e-09
1.07609e-08
3.42428e-08
-7.73088e-07
-6.11914e-06
-2.39135e-05
-6.31531e-05
3.36128e-05
0.166772
0.500074
0.833368
0.999998
0.999997
0.999993
0.99998
0.999941
0.99995
0.999958
0.999953
0.999921
0.833627
0.500755
0.16792
0.000904869
-0.000409502
-0.00031774
-0.000135674
-2.43024e-05
2.82113e-06
2.20955e-06
9.38825e-07
1.73542e-07
3.9143e-10
-3.62087e-09
-2.7765e-09
-1.2253e-09
-2.82044e-10
-3.20421e-12
5.79451e-34
4.42695e-30
5.75497e-29
4.8434e-28
-9.68527e-28
-1.44286e-26
-9.37523e-25
-2.45372e-23
-1.23273e-22
3.44015e-22
7.27821e-21
1.6442e-19
1.25463e-19
-2.72045e-19
-6.13034e-17
-3.21693e-16
-1.95945e-15
-1.53151e-14
-8.35542e-14
-5.30145e-13
-3.22516e-12
-1.43592e-11
5.97036e-10
4.81499e-09
2.12561e-08
6.42815e-08
-1.31183e-06
-1.03797e-05
-3.93873e-05
-0.00010033
4.61652e-05
0.166824
0.500113
0.83339
0.999995
0.999992
0.999983
0.99995
0.999859
0.999882
0.999901
0.999888
0.999818
0.833841
0.501389
0.169027
0.00172502
-0.000556003
-0.000436291
-0.00018521
-3.15591e-05
3.60173e-06
2.8168e-06
1.19839e-06
2.88356e-07
7.36946e-09
-4.86077e-09
-3.83702e-09
-1.98379e-09
-4.63765e-10
-3.37778e-32
1.4558e-30
2.64806e-29
3.05759e-28
2.12502e-27
1.13778e-27
-9.51529e-26
-1.07591e-23
-1.44199e-22
-4.64595e-23
2.868e-21
8.08146e-20
4.26466e-19
1.11926e-19
-6.20266e-18
-9.49063e-17
-6.31847e-16
-7.81245e-15
-4.7533e-14
-2.5933e-13
-1.63985e-12
-8.97641e-12
-3.51881e-11
1.18453e-09
9.44064e-09
3.99361e-08
1.15113e-07
-2.21347e-06
-1.72333e-05
-6.63917e-05
-0.000152273
6.06297e-05
0.166894
0.500171
0.833423
0.999987
0.99998
0.999958
0.999882
0.999678
0.99973
0.999775
0.999747
0.999596
0.834192
0.502482
0.17095
0.00315218
-0.000727598
-0.000571466
-0.000240003
-3.78291e-05
4.19207e-06
3.43219e-06
1.81664e-06
6.13596e-07
4.30253e-08
-5.49073e-09
-4.83284e-09
-2.39221e-09
-2.06291e-32
-3.73542e-31
6.30586e-30
1.5078e-28
1.55434e-27
1.08457e-26
1.25369e-27
-2.4662e-24
-8.49155e-23
-4.82927e-22
8.81884e-22
3.18233e-20
2.88146e-19
1.04197e-18
-8.28797e-19
-2.48708e-17
-1.09445e-16
-2.84578e-15
-2.35121e-14
-1.27365e-13
-7.20594e-13
-4.43109e-12
-2.19902e-11
-7.74395e-11
2.22272e-09
1.7597e-08
7.1566e-08
1.97133e-07
-3.8999e-06
-2.96709e-05
-0.000109642
-0.000220803
8.11806e-05
0.166997
0.500263
0.833478
0.999967
0.999952
0.999901
0.99973
0.999288
0.999406
0.999506
0.999448
0.999137
0.83471
0.504245
0.174115
0.00546639
-0.000915773
-0.000717462
-0.000295971
-4.21304e-05
4.24541e-06
3.62331e-06
2.27154e-06
8.86661e-07
1.49574e-07
-5.04602e-09
-4.10909e-09
-4.80885e-33
-1.02216e-30
1.46769e-30
6.20902e-29
9.81051e-28
8.37915e-27
4.39109e-26
-3.80812e-25
-3.64599e-23
-3.36463e-22
-1.73883e-21
1.36141e-20
1.61388e-19
1.00071e-18
1.76043e-18
-7.84863e-18
-6.78811e-17
-4.04132e-16
-7.58521e-15
-5.13791e-14
-2.63283e-13
-1.70282e-12
-1.05753e-11
-4.84168e-11
-1.55494e-10
3.96394e-09
3.12979e-08
1.22672e-07
3.23458e-07
-6.63695e-06
-4.81639e-05
-0.000168406
-0.000306329
0.000119062
0.167155
0.50041
0.833567
0.999921
0.999888
0.999775
0.999406
0.998483
0.998739
0.998953
0.998837
0.998219
0.835359
0.506869
0.178967
0.00893407
-0.00110587
-0.000863554
-0.000349328
-4.58929e-05
4.13834e-06
3.80316e-06
2.75643e-06
1.22174e-06
3.14739e-07
-4.60446e-09
-1.27369e-33
-6.31146e-31
-7.14909e-30
1.85518e-29
5.67383e-28
5.7628e-27
3.43991e-26
2.89091e-25
-8.30754e-24
-1.73579e-22
-1.59638e-21
-2.369e-21
6.84667e-20
6.94183e-19
4.28484e-18
1.47552e-18
-3.79213e-17
-2.43614e-16
-1.21253e-15
-1.18228e-14
-9.18371e-14
-5.50097e-13
-3.92332e-12
-2.31039e-11
-9.74634e-11
-2.87074e-10
6.82586e-09
5.37566e-08
2.08232e-07
5.04591e-07
-9.72476e-06
-7.212e-05
-0.000239008
-0.000410721
0.00019106
0.167407
0.500654
0.833714
0.999818
0.999747
0.999506
0.998739
0.996879
0.997413
0.997857
0.997631
0.996438
0.83593
0.510373
0.185784
0.0136637
-0.00128856
-0.00100345
-0.000400738
-5.26213e-05
4.05977e-06
4.02025e-06
3.39875e-06
1.80919e-06
3.43212e-07
4.83813e-33
-2.83743e-31
-5.80067e-30
-3.71415e-29
2.57908e-28
3.70353e-27
2.47589e-26
1.97301e-25
2.45776e-24
-6.67046e-23
-8.38805e-22
-8.13581e-21
1.36111e-20
3.57929e-19
2.86965e-18
1.01559e-17
-8.80354e-18
-1.19867e-16
-8.0366e-16
-9.37019e-16
-7.23484e-15
-8.68758e-14
-8.05357e-13
-8.12765e-12
-4.63168e-11
-1.80738e-10
-4.88187e-10
1.19848e-08
9.3628e-08
3.60562e-07
7.37354e-07
-1.31051e-05
-0.000101309
-0.00032268
-0.000539672
0.000321963
0.167818
0.501064
0.833953
0.999596
0.999448
0.998953
0.997413
0.993796
0.99487
0.995751
0.995321
0.993088
0.835859
0.514373
0.194376
0.0194147
-0.00146351
-0.00113879
-0.00045883
-7.06983e-05
3.89164e-06
3.66938e-06
3.12812e-06
1.40284e-06
6.7428e-33
-6.96718e-32
-3.20209e-30
-4.87139e-29
1.89416e-29
1.88422e-27
1.78605e-26
9.70522e-26
3.26179e-24
-7.95265e-24
-3.18438e-22
-4.913e-21
-2.9143e-20
1.01349e-19
1.40633e-18
7.29662e-18
1.89309e-17
3.49161e-18
-2.32714e-16
-9.16865e-17
5.19294e-16
-1.85849e-15
-1.74636e-14
-6.67925e-13
-1.49031e-11
-8.59502e-11
-3.41096e-10
-7.43643e-10
2.17615e-08
1.59255e-07
5.66271e-07
1.01569e-06
-1.78798e-05
-0.000136894
-0.000424428
-0.00069285
0.000564992
0.168512
0.501754
0.834324
0.999137
0.998837
0.997857
0.99487
0.988069
0.990145
0.991791
0.991016
0.987021
0.834007
0.517836
0.203776
0.0254466
-0.00163006
-0.00127135
-0.000524342
-9.01437e-05
3.38398e-06
3.15814e-06
2.25239e-06
2.9146e-33
1.1055e-31
-1.24271e-30
-2.90315e-29
-3.72382e-28
4.46945e-28
1.00342e-26
7.20316e-26
8.15038e-25