/*--------------------------------*- C++ -*----------------------------------*\
| =========                 |                                                 |
| \\      /  F ield         | OpenFOAM: The Open Source CFD Toolbox           |
|  \\    /   O peration     | Version:  v2106                                 |
|   \\  /    A nd           | Website:  www.openfoam.com                      |
|    \\/     M anipulation  |                                                 |
\*---------------------------------------------------------------------------*/
FoamFile
{
    version     2.0;
    format      ascii;
    arch        "LSB;label=32;scalar=64";
    class       volScalarField;
    location    "0.3";
    object      T;
}
// * * * * * * * * * * * * * * * * * * * * * * * * * * * * * * * * * * * * * //

dimensions      [0 0 0 1 0 0 0];

internalField   nonuniform List<scalar> 
3600
(
1
1
1
1
1
1
0.428571
0.047619
7.14285e-11
-4.27094e-19
-4.27095e-19
-4.26744e-19
-4.25369e-19
-4.12491e-19
-4.2896e-19
6.09172e-16
2.39866e-14
5.12562e-13
9.77452e-13
3.97444e-13
5.59807e-15
-1.28401e-14
-1.25893e-14
-1.04154e-14
-2.56686e-15
1.28209e-17
6.66659e-18
5.14531e-19
-2.27021e-18
-2.21821e-19
7.44325e-19
2.48901e-19
-1.36232e-21
-1.22976e-21
-6.97543e-22
-7.72694e-23
-1.27763e-23
-2.15161e-24
7.88643e-25
3.24368e-25
-3.82113e-28
-1.19212e-27
-4.49082e-28
-3.42382e-29
-1.27521e-30
-2.31491e-32
8.36377e-36
8.26305e-36
5.12315e-36
1.66554e-36
2.65595e-42
-8.01559e-42
-3.32418e-42
-5.03775e-43
3.0348e-43
-9.44019e-45
-9.35584e-46
-1.39903e-46
4.94191e-55
1.86078e-55
1
1
1
1
1
1
0.928571
0.496032
0.139881
-1.22201e-08
-1.22201e-08
-7.24521e-09
-3.30953e-09
-1.17942e-09
-8.10058e-11
-1.49982e-11
-7.83745e-12
-3.61908e-12
-4.66232e-13
2.94599e-12
1.79455e-12
8.27943e-13
3.17146e-13
-1.05715e-14
-1.32803e-14
-5.02101e-15
-2.93298e-16
4.14123e-17
2.32614e-17
-7.47219e-19
3.15996e-19
1.20287e-18
8.11377e-19
2.34445e-19
3.58548e-20
-2.51154e-21
-3.44093e-22
-1.23743e-22
-7.11765e-23
-2.30248e-23
-1.20154e-24
5.1882e-27
3.33975e-27
9.22285e-28
-2.56103e-29
-1.69558e-29
-2.22268e-30
-2.66933e-34
1.54272e-35
9.8764e-36
3.14784e-36
1.07347e-39
-5.49804e-41
-3.73383e-41
-2.72406e-41
-3.05664e-44
-2.70117e-44
-2.28118e-44
-1.19579e-44
-1.17657e-45
1
1
1
1
1
1
1
0.860119
0.5
0.15997
2.29609e-07
-1.28123e-07
-7.6487e-08
-3.491e-08
-1.19206e-08
-2.69303e-10
-1.86205e-10
-1.23348e-10
-6.67135e-11
-1.04257e-11
1.02542e-11
9.01455e-12
5.53187e-12
1.77818e-12
-1.39719e-14
-9.34267e-15
-3.32855e-15
-6.62741e-16
2.30463e-17
9.81234e-18
-2.16297e-17
-5.07782e-17
-3.45491e-17
-8.98921e-18
3.15641e-19
1.5484e-19
3.16663e-20
2.05676e-21
-4.93845e-23
-3.8146e-24
-6.95404e-24
-3.17893e-24
6.18356e-27
4.4955e-27
1.03803e-27
-1.65384e-29
-4.36876e-30
-4.26005e-33
-6.13997e-34
-1.53012e-35
5.39141e-36
1.92221e-38
1.07855e-38
1.97125e-40
4.26356e-41
2.44951e-41
1.75647e-41
1.08037e-41
1.96429e-42
6.41559e-44
1
1
1
1
1
1
1
1
0.84003
0.500001
0.164995
7.72625e-07
-6.71409e-07
-4.03514e-07
-1.83653e-07
-5.4907e-08
-2.96074e-09
-1.73361e-09
-8.86293e-10
-3.63287e-10
5.5576e-11
5.21945e-11
3.85352e-11
1.84391e-11
1.83456e-12
-1.30336e-14
-1.06777e-14
-7.57389e-15
-6.23399e-16
7.35757e-16
4.59991e-16
1.61248e-16
-5.39329e-17
-4.38317e-17
-6.99507e-18
-7.77469e-19
2.03374e-20
1.08251e-20
1.04704e-21
9.82749e-23
2.07091e-23
3.51792e-24
3.80766e-25
1.32728e-27
8.39795e-28
3.84663e-28
-1.22009e-30
3.1072e-32
-1.66626e-32
-1.82544e-32
-3.11872e-33
2.36232e-35
-7.13288e-36
-1.38175e-36
-1.46696e-37
-1.69653e-39
2.09444e-39
1.56704e-39
3.22561e-40
1.89852e-41
1
1
1
1
1
1
1
1
1
0.835011
0.500009
0.166263
2.82701e-06
-2.33573e-06
-1.41309e-06
-6.35752e-07
-1.66354e-07
-2.57648e-08
-1.05562e-08
-3.83353e-10
4.03695e-10
3.36631e-10
2.19001e-10
1.12957e-10
2.47951e-11
-3.2316e-13
-1.99237e-13
-8.4054e-14
-5.47701e-14
-4.94476e-16
2.33508e-15
1.63225e-15
4.30282e-16
-3.84955e-17
-2.00445e-17
-1.67666e-18
2.97629e-20
2.41401e-20
7.66643e-21
-5.9661e-23
-3.97255e-24
1.19328e-24
3.7738e-25
3.30337e-26
1.2254e-27
1.81571e-28
-1.23618e-29
-5.71217e-30
3.00255e-31
1.41279e-31
-9.65264e-34
-3.85916e-34
-6.77402e-36
-6.38943e-37
-3.92782e-37
-2.52737e-37
-1.20005e-37
-8.41261e-39
-1.66223e-39
-3.2042e-40
1
1
1
1
1
1
1
1
1
0.999999
0.833769
0.500045
0.166628
1.91656e-05
-6.04617e-06
-3.68052e-06
-1.65603e-06
-4.46395e-07
-1.14536e-07
-3.94471e-09
1.00143e-09
9.39312e-10
7.27086e-10
4.3645e-10
1.76042e-10
2.67222e-13
-2.10788e-12
-8.33051e-13
-2.67411e-13
-6.16321e-14
1.74285e-14
1.48773e-14
6.97784e-15
1.09181e-15
-9.06555e-18
-4.02229e-18
-4.72476e-19
4.78931e-21
4.92453e-21
1.75374e-21
6.77542e-23
-6.9758e-25
-4.56635e-25
-7.0362e-27
4.49404e-27
2.74075e-27
1.72159e-28
-5.88823e-29
-3.198e-29
5.40584e-32
7.45176e-33
1.17262e-33
-1.93545e-34
1.13997e-36
1.02045e-36
1.51546e-37
-3.88854e-38
-4.43641e-39
9.09477e-40
3.60995e-41
0.428571
0.928571
1
1
1
1
0.999997
0.999997
0.999997
0.999997
0.999992
0.833522
0.500223
0.16684
0.000121458
-1.23928e-05
-8.08522e-06
-3.77866e-06
-1.16666e-06
-2.01938e-07
3.5212e-09
2.65738e-09
1.90082e-09
1.23225e-09
6.45416e-10
1.25976e-10
-2.46751e-12
-2.0634e-12
-1.4398e-12
-7.02766e-13
-1.56828e-13
1.56496e-14
1.13181e-14
3.3309e-15
4.66586e-18
5.41195e-18
-2.89781e-19
-1.3266e-19
-3.07904e-20
4.89336e-22
1.35464e-22
-3.85924e-24
-5.09914e-25
9.70262e-26
3.97311e-26
8.2516e-26
5.38207e-26
9.56713e-27
2.6722e-28
2.31643e-32
4.40789e-33
2.10367e-33
1.16341e-33
5.57276e-34
5.17149e-35
1.00118e-35
-6.67339e-37
-8.95948e-38
-1.9102e-37
-3.59073e-38
0.047619
0.496032
0.860119
1
1
1
0.999997
0.99998
0.999982
0.999985
0.999983
0.999959
0.833707
0.500833
0.167294
0.000387661
-2.06811e-05
-1.56438e-05
-7.19388e-06
-2.18034e-06
-3.84018e-07
8.00353e-09
5.66993e-09
3.55795e-09
1.94553e-09
7.75857e-10
5.5994e-14
6.72445e-12
-1.24977e-12
-1.07157e-12
-6.37128e-13
-1.65949e-13
2.57436e-15
1.47096e-15
5.8311e-16
3.8912e-17
-2.8819e-18
-2.44134e-18
-4.23255e-19
1.77791e-20
1.14226e-20
1.15552e-21
-1.31264e-23
-1.71945e-23
-1.13254e-23
-1.82166e-24
-3.07493e-26
5.8212e-27
2.87486e-27
3.93759e-28
-9.69779e-30
-4.51459e-30
2.97729e-33
2.4944e-33
9.36546e-34
1.68402e-34
-4.39219e-37
-2.87082e-37
3.10197e-37
5.16447e-38
3.28069e-09
0.139881
0.5
0.84003
1
1
0.999997
0.999982
0.999905
0.999917
0.99993
0.999918
0.999814
0.834459
0.502527
0.168401
0.000931121
-2.87405e-05
-2.28144e-05
-1.09095e-05
-3.99341e-06
-7.29741e-07
2.13964e-08
1.39674e-08
7.51665e-09
3.21536e-09
3.80796e-10
-3.87795e-11
-3.44344e-11
-1.26615e-11
-6.43708e-13
-1.1702e-13
-1.2299e-14
-7.75761e-16
2.64602e-16
4.89601e-17
2.31189e-17
-1.72757e-18
-9.12743e-19
4.72525e-20
-3.28137e-20
-1.83315e-20
-9.93456e-22
-1.10352e-23
-7.62477e-24
-1.03842e-24
-1.28031e-25
-7.72649e-26
-3.63777e-26
-1.79742e-27
-1.02122e-28
-1.35587e-29
-1.18915e-30
-6.64659e-31
-2.55328e-32
-5.63981e-33
-4.51596e-34
-9.88554e-35
-1.40856e-35
6.7283e-37
-5.13481e-09
3.21061e-07
0.15997
0.5
0.835009
0.999999
0.999997
0.999985
0.999917
0.999606
0.999658
0.99971
0.999661
0.999285
0.836226
0.506304
0.170736
0.00229785
-3.7247e-05
-2.99426e-05
-1.70576e-05
-7.21266e-06
-1.8015e-06
4.82358e-08
3.06586e-08
1.50896e-08
4.71171e-09
-2.96488e-10
-2.20886e-10
-8.95049e-11
-6.85256e-12
-2.10171e-13
-8.49421e-14
-3.03682e-14
-2.48137e-16
-7.45729e-17
-9.64936e-17
-9.65345e-17
-5.34332e-17
-2.90789e-18
1.88239e-19
8.22308e-20
8.38042e-21
-1.2671e-23
-6.56671e-24
2.0319e-24
1.58323e-24
2.34166e-25
9.99366e-27
-6.57082e-27
2.12061e-28
1.27792e-28
1.60161e-29
4.08612e-31
5.98044e-32
-2.9392e-33
-2.25672e-34
-1.06714e-34
-1.51061e-35
-2.94704e-36
-2.18445e-09
-1.2384e-07
1.84671e-06
0.164994
0.500006
0.833767
0.999992
0.999983
0.99993
0.999658
0.998565
0.998766
0.998958
0.998784
0.9976
0.839342
0.512621
0.177239
0.00784023
-4.47068e-05
-3.50128e-05
-2.00346e-05
-8.91933e-06
-2.0434e-06
9.33903e-08
6.9089e-08
3.19972e-08
8.88089e-09
-3.87825e-10
-3.83744e-10
-1.26844e-10
1.86856e-13
1.66545e-13
4.27777e-14
5.50267e-16
1.44367e-16
2.61508e-16
1.12772e-16
-3.48744e-17
-1.63245e-17
-1.97453e-18
-1.11072e-19
5.70948e-21
1.77191e-21
9.8208e-23
4.86222e-23
1.53736e-23
2.34687e-24
-1.69378e-25
-4.73031e-26
-2.25799e-27
-2.39934e-28
7.26515e-30
1.8363e-30
1.21235e-30
3.443e-31
-5.32776e-35
2.68795e-35
3.73146e-35
5.71663e-36
-3.20876e-10
-7.26419e-08
-1.09419e-06
6.75661e-06
0.166265
0.500044
0.833521
0.999959
0.999918
0.99971
0.998766
0.995368
0.996056
0.996686
0.996158
0.992856
0.842723
0.520811
0.191875
0.0186037
-5.78894e-05
-5.20611e-05
-3.52482e-05
-1.73096e-05
-4.26884e-06
1.28815e-07
1.12342e-07
6.35702e-08
1.71827e-08
-3.11024e-10
-1.52326e-10
-7.98786e-12
-1.14964e-12
5.3946e-14
3.53338e-14
1.68867e-14
4.32382e-15
1.26065e-15
-2.57109e-17
-1.53693e-17
-3.19248e-18
-4.86642e-19
-1.15732e-20
-3.4081e-21
-8.09268e-22
3.59781e-23
2.79222e-23
1.5913e-23
3.73485e-24
-6.11003e-27
-2.99854e-27
-1.69758e-27
-7.93456e-28
-3.85251e-31
2.91248e-32
4.111e-32
-2.35566e-32
-2.56103e-33
-3.68514e-34
-4.56895e-35
-5.69609e-11
-3.24385e-08
-6.55102e-07
-5.96948e-06
1.80561e-05
0.166645
0.500228
0.83371
0.999814
0.999661
0.998958
0.996056
0.986674
0.988758
0.990585
0.989158
0.980895
0.841625
0.5266
0.210641
0.029848
-5.6333e-05
-5.3702e-05
-4.25797e-05
-2.13678e-05
-5.65781e-06
1.23998e-07
1.12818e-07
7.29717e-08
2.39561e-08
-1.03744e-10
-5.43699e-11
-1.91701e-11
1.6708e-12
2.31426e-13
1.94228e-14
1.70261e-15
7.37042e-16
-1.79087e-16
-1.38037e-16
-1.69972e-17
-8.09925e-19
-7.09149e-21
-3.21206e-21
-1.08176e-21
2.7151e-23
2.60459e-23
1.86413e-23
8.57564e-24
2.30922e-25
4.42307e-26
7.32087e-27
7.99699e-28
1.63301e-28
-1.88071e-30
-2.18281e-32
-2.03224e-32
-2.78482e-33
-4.29209e-34
-4.71661e-35
5.01329e-11
-1.09876e-08
-2.99762e-07
-3.59883e-06
-2.34483e-05
4.74655e-05
0.166886
0.500867
0.834483
0.999285
0.998784
0.996686
0.988758
0.965643
0.971252
0.975692
0.972297
0.953713
0.826426
0.520541
0.220053
0.0333218
-4.82921e-05
-4.31298e-05
-3.69658e-05
-2.48226e-05
-7.11549e-06
1.02385e-07
7.51238e-08
3.58554e-08
1.1451e-08
-1.57502e-10
-1.14585e-10
-2.55327e-11
4.61677e-13
2.6028e-13
3.5519e-14
4.55599e-15
9.60155e-16
3.13945e-16
-1.40354e-17
-7.08045e-18
-1.34783e-18
-1.64359e-21
-7.11346e-22
-8.32653e-24
1.56096e-23
1.32719e-23
7.14154e-24
1.6703e-24
8.3948e-26
8.00403e-27
-3.65979e-28
-2.27084e-28
-5.24412e-29
-1.12023e-31
-1.63533e-32
-1.33385e-33
-1.32144e-34
-6.27991e-36
9.2317e-11
-2.3068e-10
-1.02176e-07
-1.65117e-06
-1.42159e-05
-7.1544e-05
0.000175197
0.167397
0.502639
0.836308
0.9976
0.996157
0.990584
0.971251
0.920337
0.93303
0.943094
0.935722
0.898067
0.780083
0.485139
0.204131
0.0231661
0.000998734
3.04625e-05
-2.35657e-05
-1.62143e-05
-3.60247e-06
-1.80271e-07
3.21286e-08
1.98001e-08
4.85541e-09
-8.88062e-11
-5.0857e-11
-8.78583e-12
1.30841e-13
2.66621e-14
5.07637e-15
-8.56232e-16
1.76595e-16
6.79455e-17
-4.02239e-18
-8.04672e-19
-2.56777e-19
-1.2821e-22
-1.13719e-23
3.81111e-24
3.65373e-24
2.74263e-24
1.04361e-24
8.1814e-26
3.2471e-26
8.34472e-27
-1.97416e-28
-6.93383e-29
-3.13157e-31
-2.3486e-31
-5.84881e-32
-1.76492e-34
-1.77319e-36
3.65588e-11
3.58293e-10
-1.71698e-09
-5.47781e-07
-6.51185e-06
-4.36009e-05
-0.000176738
0.000464045
0.168594
0.506552
0.839519
0.992854
0.989156
0.97569
0.933033
0.83482
0.850823
0.878596
0.865609
0.80038
0.687578
0.413721
0.154603
0.000905961
3.57977e-05
-4.16736e-05
-3.66536e-05
-1.75527e-05
-1.02658e-07
4.98496e-08
4.82547e-08
8.44116e-09
6.6677e-10
2.7426e-10
4.70853e-11
-3.79175e-13
8.00301e-14
1.51409e-14
4.16766e-15
3.55591e-17
3.24407e-17
1.22947e-17
-5.6069e-19
-3.75412e-19
-7.37673e-20
2.10305e-22
5.34067e-23
4.66913e-24
2.57117e-24
1.25364e-25
5.32318e-26
2.55925e-26
1.31822e-26
3.13644e-27
-5.29039e-29
-2.01639e-29
-2.36373e-30
-5.83453e-31
2.01567e-33
7.45085e-34
2.21119e-15
2.05957e-10
9.41875e-10
1.58457e-08
-2.07401e-06
-1.98893e-05
-0.00010825
-0.000362628
0.00098865
0.17107
0.513029
0.842983
0.980891
0.972292
0.943091
0.850841
0.71837
0.73275
0.764251
0.750031
0.685659
0.572165
0.317831
0.0735893
-0.000178961
-0.000157613
-0.000128196
-6.54284e-05
-1.10552e-05
-2.73377e-08
9.30427e-09
-2.87255e-09
-1.76992e-09
3.8133e-10
2.27359e-10
2.83064e-11
1.39511e-13
1.28834e-14
2.97263e-15
4.04727e-17
2.96637e-17
1.55165e-17
1.3181e-18
-2.47302e-19
-1.28106e-19
-1.88239e-20
1.32567e-22
6.63365e-24
4.86498e-24
9.47578e-25
-1.96401e-26
-7.77768e-27
3.97081e-27
1.30041e-27
3.49668e-28
-3.21735e-30
-1.04985e-30
-3.08141e-31
-9.16132e-32
-2.28511e-33
2.77951e-15
8.46213e-11
8.275e-10
1.25189e-08
1.73804e-07
-5.86821e-06
-4.96697e-05
-0.000227391
-0.000625437
0.0023488
0.17808
0.521352
0.8418
0.953705
0.935709
0.878609
0.732823
0.572299
0.584512
0.606401
0.612386
0.557906
0.442229
0.213317
0.0381692
-0.000311318
-0.000267614
-0.000165681
-6.26605e-05
-2.78913e-06
-2.08402e-08
-1.81416e-08
-1.06874e-08
-1.93373e-09
1.92157e-10
9.47494e-11
1.79267e-12
5.60426e-16
-6.03748e-16
-3.01666e-16
-2.82121e-17
4.85153e-17
2.34945e-17
2.04486e-19
-6.76309e-20
-3.14995e-20
-2.7765e-21
-1.11672e-23
5.05947e-24
2.3507e-24
1.89545e-25
3.21198e-26
1.06105e-26
2.66641e-27
8.44769e-28
-6.39645e-32
6.73255e-32
1.79997e-32
-3.40495e-32
-8.71591e-33
-6.20679e-14
3.83562e-11
6.19963e-10
8.2976e-09
1.1037e-07
6.79454e-07
-1.38919e-05
-0.000108247
-0.000466498
-0.000884792
0.00808245
0.192974
0.527255
0.826787
0.89783
0.865449
0.764478
0.584763
0.410113
0.422882
0.441797
0.457374
0.413665
0.307974
0.135136
0.0204415
-0.000404585
-0.000360546
-0.000220597
-5.62816e-05
4.73732e-08
1.79564e-08
-8.39454e-09
-4.29142e-09
-1.17224e-09
7.46984e-12
9.45749e-12
2.2789e-12
-6.37924e-15
-2.61918e-15
-6.01351e-16
-4.26798e-16
2.13298e-17
5.45735e-18
8.31392e-20
1.33104e-20
-5.7982e-22
-2.43565e-22
-5.23848e-23
8.75213e-25
7.21521e-26
2.16277e-26
9.99782e-27
1.19315e-27
6.62265e-28
3.01191e-29
1.15574e-31
2.16932e-32
-2.68337e-33
-1.28566e-33
-1.73328e-12
1.79639e-11
3.99039e-10
4.85732e-09
5.65419e-08
4.13539e-07
1.54117e-06
-2.87513e-05
-0.000207997
-0.000692617
-0.0011207
0.0187419
0.21165
0.521304
0.780216
0.799636
0.74978
0.606291
0.422794
0.254591
0.270232
0.29557
0.310755
0.277593
0.192064
0.0820215
0.00918603
1.53818e-06
-0.000144575
-9.15942e-05
-2.09714e-05
-3.55166e-07
-1.43069e-07
-1.41984e-08
-9.93316e-10
1.46537e-10
1.35173e-11
7.88932e-12
5.92766e-13
1.20125e-14
-4.72334e-15
-9.69926e-16
-2.24654e-16
-5.5087e-17
-9.95455e-18
-3.30461e-20
-2.70271e-21
-3.18691e-23
-3.39908e-23
-2.52127e-25
-6.32532e-26
1.04689e-27
-7.07359e-28
1.96786e-28
1.09957e-28
3.61976e-29
-3.06167e-31
1.14438e-32
9.9681e-33
2.17912e-33
-2.63459e-12
1.86494e-12
1.97921e-10
2.40473e-09
2.41908e-08
1.953e-07
1.37272e-06
1.28004e-06
-4.58177e-05
-0.000306643
-0.000911436
-0.00119215
0.0297977
0.221163
0.485739
0.687337
0.685052
0.611435
0.441131
0.270141
0.12345
0.145424
0.176597
0.192207
0.167626
0.104984
0.0401506
0.000907556
-8.41332e-05
-7.5608e-05
-3.91083e-05
-3.76491e-06
-8.23535e-07
-1.67194e-07
-3.22014e-08
-7.72474e-09
-5.32304e-11
3.66424e-12
1.41496e-12
8.7038e-14
2.27855e-14
3.69938e-15
-4.27474e-17
-9.9807e-19
-1.79524e-18
-7.95595e-20
-1.66954e-20
-2.29397e-21
-9.22058e-24
-3.05999e-24
-6.10175e-25
-3.3272e-27
-1.38131e-27
-2.5748e-28
2.47105e-29
1.49563e-29
3.93462e-30
3.26634e-31
1.55232e-31
4.08826e-32
-6.61228e-13
-9.52276e-12
3.46155e-11
7.6344e-10
7.90853e-09
7.23675e-08
7.15919e-07
1.94242e-06
2.91269e-07
-7.5666e-05
-0.000496088
-0.00102852
-0.00114746
0.0334544
0.205519
0.414803
0.571837
0.55722
0.45655
0.295472
0.14579
0.032015
0.049877
0.0864138
0.105401
0.0892189
0.0517489
0.013588
-7.87477e-05
-7.25554e-05
-5.13497e-05
-1.31341e-05
3.97044e-08
2.06423e-08
-4.3682e-09
-1.35789e-09
2.79553e-11
-1.86793e-12
-6.35895e-14
2.16229e-14
1.66107e-14
5.43808e-15
2.51242e-16
4.06404e-17
-6.08221e-19
9.20568e-21
-4.02954e-21
-9.76115e-22
-3.80577e-24
-2.16259e-24
-6.76765e-25
-3.6102e-27
-1.35972e-27
-1.64401e-28
-5.18333e-29
-9.74279e-31
-4.3358e-30
-2.98388e-30
-1.15431e-31
4.26826e-32
-6.78119e-16
-5.46804e-12
-2.02593e-11
-9.1905e-11
-1.95252e-09
9.6877e-09
2.60528e-07
1.17527e-06
3.12297e-06
7.9021e-07
-0.000172743
-0.000655771
-0.00102096
-0.00122817
0.0242166
0.158439
0.319687
0.441455
0.412972
0.310208
0.178135
0.051266
0.00117399
0.0118496
0.0314628
0.0470784
0.0401641
0.0216279
0.00493084
-6.27408e-05
-4.85971e-05
-2.39071e-05
-2.72884e-06
-3.2173e-07
-1.47331e-08
-6.834e-10
-2.38047e-12
-1.28578e-11
-4.73956e-12
-1.5696e-14
-1.25545e-15
-1.72217e-16
1.07754e-16
5.07936e-17
4.27974e-18
7.85945e-21
-8.1824e-22
7.4684e-25
-2.4444e-24
-2.14903e-24
-1.35627e-24
-2.4407e-25
8.37654e-28
1.48618e-27
5.23759e-28
-9.79774e-29
4.21623e-30
1.02821e-31
-7.64069e-31
-2.06973e-31
5.92991e-16
-2.17921e-12
-1.55573e-11
-8.24429e-11
-1.32165e-09
-7.90282e-09
1.49195e-08
4.50333e-07
2.21029e-06
3.92622e-06
-5.58178e-06
-0.000237553
-0.000707736
-0.00112905
-0.00120694
0.00120342
0.0745275
0.21461
0.307706
0.277323
0.191176
0.0890411
0.0114859
0.00110717
0.000397756
0.00785044
0.0178742
0.0154697
0.00821934
0.00187985
-3.81008e-05
-2.61847e-05
-8.72535e-06
-7.28474e-08
-1.68616e-08
-2.54993e-09
3.39236e-11
-1.11736e-11
-4.96428e-12
-3.33405e-13
-2.92953e-15
-6.54287e-17
4.05452e-17
2.01142e-17
2.38466e-18
1.20301e-19
7.8258e-22
5.29554e-22
1.89146e-22
1.06889e-23
-2.93758e-24
-1.04176e-24
-2.16308e-25
4.25019e-27
2.49123e-27
4.76291e-28
3.47335e-29
-1.05365e-30
-1.57977e-30
-7.75414e-31
6.68788e-15
-1.14443e-13
-6.75719e-12
-5.02036e-11
-6.67886e-10
-5.51012e-09
-1.22514e-08
3.45446e-08
8.29426e-07
2.60043e-06
6.231e-06
-9.37301e-06
-0.000256907
-0.000774088
-0.000840577
-0.000239376
-0.000396088
0.0388846
0.136683
0.19182
0.167238
0.10564
0.0338434
0.000383782
0.000237614
4.10861e-05
0.00168751
0.00606754
0.00524578
0.00303455
0.000833862
-1.8742e-05
-1.13135e-05
-2.6971e-06
-2.92325e-09
-1.25244e-10
2.04942e-10
6.82392e-12
-1.70518e-12
-1.00657e-12
-4.85828e-15
1.72999e-16
1.52025e-16
8.11164e-17
8.09132e-18
3.74708e-20
-4.61652e-20
-2.32899e-20
1.57482e-22
2.02766e-23
5.51654e-24
-6.49166e-25
-9.17729e-26
-3.42966e-27
1.00474e-27
1.16576e-28
2.77104e-29
1.16464e-29
1.46724e-30
-5.85503e-31
2.15515e-15
8.3407e-15
-3.5733e-13
-1.21658e-11
-1.64116e-10
-2.36723e-09
-9.47666e-09
-1.98796e-08
3.37082e-08
9.45985e-07
4.20489e-06
8.04404e-06
-1.52393e-05
-0.000262166
-0.000464269
-0.000385645
-0.0003418
-0.000330148
0.0211441
0.0823078
0.105182
0.0895877
0.0480029
0.00842378
-3.40291e-05
0.000111477
0.000159197
7.17801e-05
0.00148271
0.00180987
0.00107099
0.00029121
-7.57296e-06
-4.27765e-06
-9.11786e-07
6.29328e-10
5.92223e-10
1.82333e-10
-2.6151e-12
-1.94011e-12
-4.21479e-13
-1.77209e-15
-7.20281e-16
-3.27739e-17
7.42706e-18
2.13869e-18
9.64837e-20
-9.18014e-21
-3.16348e-21
-8.17683e-23
2.22958e-24
9.08601e-25
1.83342e-25
1.71294e-26
-7.26341e-28
-5.2983e-28
-1.59326e-28
1.63899e-29
1.03102e-29
1.44057e-30
-6.63393e-17
6.14812e-15
3.99502e-16
-1.04202e-12
4.14025e-12
-2.10432e-10
-4.03909e-09
-1.20435e-08
-1.79102e-08
3.4753e-09
1.35671e-06
5.8194e-06
6.66904e-06
7.16267e-06
-0.000110103
-0.000212888
-0.000218147
-0.000273749
-0.000367763
0.00943938
0.0400626
0.0519643
0.0408262
0.0182724
0.00166917
0.000155891
0.000142125
7.70353e-05
8.82396e-06
0.000502977
0.00062764
0.000364849
9.6662e-05
-2.72183e-06
-1.44819e-06
-2.64889e-07
5.20591e-10
3.43641e-10
8.78968e-11
-1.63041e-12
-1.02266e-12
-1.02511e-13
-2.31852e-14
2.28393e-16
6.48291e-17
1.41828e-17
3.36885e-19
-7.16015e-21
-4.56189e-21
-1.23902e-21
-7.15169e-24
7.66912e-25
2.94885e-25
1.40514e-26
5.10197e-27
-5.46193e-28
-4.13955e-28
-1.1223e-28
8.47415e-30
3.58935e-30
-6.01078e-17
1.97648e-15
-2.161e-15
-5.90557e-14
3.34621e-12
-2.40241e-13
-2.13437e-10
-2.55687e-09
-1.05167e-08
-6.59948e-09
-1.23267e-08
1.60122e-06
4.43835e-06
6.39809e-06
5.89601e-06
-2.89662e-05
-8.87465e-05
-0.000147738
-0.00031223
-0.000492286
0.00113295
0.0135396
0.0217111
0.0156735
0.00624255
6.82829e-05
7.59144e-05
6.24278e-05
1.90894e-05
3.75017e-08
0.00016991
0.000210415
0.000120541
3.05537e-05
-8.77898e-07
-4.40355e-07
-6.90642e-08
2.67107e-10
1.57881e-10
3.44348e-11
-7.85096e-13
-3.12984e-13
-8.82861e-15
2.63042e-15
3.8252e-17
1.93732e-17
2.39641e-18
4.48749e-20
1.1534e-21
-7.79426e-22
-3.76037e-22
-1.04688e-22
1.77402e-25
7.83653e-26
1.29273e-26
1.43155e-27
-2.21828e-28
-1.28779e-28
-3.06827e-29
-6.37886e-30
-3.21628e-17
5.66777e-17
-6.44305e-15
-2.11189e-14
1.60217e-12
1.09559e-12
-3.63435e-11
2.51944e-12
-2.41499e-09
-3.76571e-09
-7.69187e-09
-7.38507e-08
8.75238e-07
3.12682e-06
4.3152e-06
3.07075e-06
-1.58376e-06
-2.74257e-05
-0.000152115
-9.48634e-05
-2.81106e-05
-1.86745e-05
0.00486737
0.00833508
0.00535038
0.00151282
8.41244e-06
1.88466e-05
1.33073e-05
3.17726e-06
2.01352e-08
5.49446e-05
6.85346e-05
3.8642e-05
9.21076e-06
-2.56657e-07
-1.22221e-07
-1.64952e-08
1.14518e-10
6.11185e-11
9.16666e-12
-1.56128e-13
-5.80936e-14
-5.90264e-15
1.3716e-17
1.01168e-17
2.99564e-18
1.28609e-19
-1.2362e-20
4.38951e-21
-1.57285e-22
-7.95453e-23
-3.8176e-23
-3.95168e-24
5.88717e-27
3.07381e-27
1.67611e-27
1.91307e-28
4.59463e-29
1.36457e-29
-2.9567e-18
8.67747e-17
-1.21989e-15
-5.56341e-14
5.61293e-14
5.10217e-13
-5.33232e-12
4.53887e-12
-1.60143e-13
1.84512e-11
-3.27487e-09
9.51754e-09
-1.15356e-07
1.58153e-07
7.35591e-07
1.81596e-06
1.23523e-07
6.63705e-07
-9.26079e-06
-4.07641e-05
-2.64708e-05
-1.66561e-05
-1.24054e-05
0.00191345
0.00312642
0.00187214
0.000522056
6.73357e-09
3.15069e-06
2.22106e-06
5.51049e-07
1.0367e-08
1.69206e-05
2.15866e-05
1.19374e-05
2.63392e-06
-6.94298e-08
-3.1794e-08
-3.74619e-09
4.07487e-11
1.88636e-11
2.00954e-12
-2.75319e-14
-1.06276e-14
-8.64896e-16
4.14336e-18
1.73203e-18
5.26892e-19
8.24547e-20
5.02482e-21
1.72584e-21
2.80978e-22
-1.48629e-25
-4.58204e-25
-5.23014e-24
-1.56361e-24
-1.09253e-27
-2.52661e-28
-8.9413e-29
3.79369e-30
4.78721e-22
1.16421e-16
-6.50875e-16
-1.54242e-14
-8.54793e-15
8.03769e-14
6.502e-14
1.95624e-12
1.61315e-12
1.44823e-11
-2.82525e-11
1.74991e-09
6.57525e-10
7.49472e-10
1.03766e-09
3.46818e-07
1.883e-07
1.30686e-06
-1.90675e-06
-3.16881e-06
-1.10558e-05
-1.02742e-05
-8.99448e-06
-5.32343e-06
0.000869305
0.0011116
0.000653801
0.000178155
1.92564e-09
5.35475e-07
3.87416e-07
1.07156e-07
5.55124e-09
4.96895e-06
6.52818e-06
3.52639e-06
7.05638e-07
-1.7919e-08
-7.99603e-09
-8.27817e-10
1.05735e-11
4.67686e-12
6.40507e-13
-4.99425e-15
-2.24594e-15
-4.06221e-16
1.11064e-18
8.13893e-19
2.68141e-19
-1.98152e-21
-4.29716e-22
-9.09983e-23
3.87589e-22
1.55204e-22
2.12699e-23
2.58394e-24
-1.19326e-27
-1.06245e-28
1.01468e-28
3.87135e-29
-1.26604e-21
9.45329e-17
2.24824e-16
-1.05975e-15
-2.22191e-15
-1.57453e-15
1.38663e-14
7.7782e-13
7.6388e-13
5.23236e-12
-8.18824e-12
2.9286e-10
2.09828e-11
1.569e-11
-2.37012e-11
-1.4896e-10
1.49756e-08
3.53859e-07
4.09061e-08
-2.26414e-07
-2.82892e-07
-1.68695e-06
-3.23873e-06
-2.85909e-06
-1.4903e-06
0.000306064
0.000381223
0.000220598
5.82666e-05
1.39514e-10
9.59311e-08
7.287e-08
2.49518e-08
3.33425e-09
1.37745e-06
1.87868e-06
9.85197e-07
1.73026e-07
-4.49696e-09
-1.96555e-09
-1.9646e-10
2.62584e-12
1.26394e-12
2.39312e-13
-1.21535e-15
-6.46782e-16
-1.55002e-16
6.73444e-19
3.95934e-19
3.89445e-20
-1.30725e-20
-1.07345e-20
-2.95561e-21
-2.63571e-22
-2.05101e-23
-4.36927e-24
-1.05241e-24
-1.59283e-27
-6.76096e-29
2.73792e-29
-6.53673e-19
1.73928e-17
8.04694e-17
-1.85726e-16
-2.11092e-16
-6.80407e-16
-1.35797e-15
1.33688e-13
2.62118e-13
2.52756e-13
-9.33358e-13
3.19363e-11
-2.96447e-11
-5.82171e-11
-5.4073e-11
-5.26762e-11
3.3681e-09
5.72464e-09
9.83656e-09
7.50223e-09
-6.23071e-08
-1.09876e-08
2.82902e-08
-3.90041e-07
-6.55289e-07
-3.04154e-07
0.000102472
0.000126793
7.23806e-05
1.81906e-05
6.96983e-10
1.93511e-08
1.60436e-08
6.87708e-09
1.70214e-09
3.54478e-07
5.06529e-07
2.54945e-07
3.82632e-08
-1.11227e-09
-4.83266e-10
-5.4227e-11
8.08597e-13
4.06476e-13
9.05798e-14
-4.06877e-16
-2.3879e-16
-5.91694e-17
9.25137e-19
7.30846e-19
1.97917e-19
-7.70478e-21
-5.61118e-22
-2.72368e-23
-2.31071e-23
-2.99244e-24
-7.6409e-25
-1.40078e-27
-4.68522e-28
-5.70572e-30
-2.52131e-19
-2.61103e-19
9.92597e-18
-1.08383e-17
-3.90362e-17
7.30442e-19
-5.06215e-16
1.03475e-14
5.46837e-14
-2.28942e-14
-4.61903e-13
4.14322e-12
-1.59511e-11
-5.00761e-11
-4.99162e-11
-4.69138e-11
9.86007e-10
1.12758e-09
1.60313e-09
4.59967e-09
2.50623e-09
4.00123e-10
2.42152e-08
2.36712e-08
-1.91232e-08
-9.40155e-08
-2.50026e-08
3.27519e-05
4.10054e-05
2.30354e-05
5.43131e-06
5.68213e-10
4.62268e-09
4.2043e-09
2.23758e-09
5.30857e-10
8.2671e-08
1.235e-07
5.86337e-08
7.19534e-09
-2.82846e-10
-1.25022e-10
-1.52972e-11
2.5625e-13
1.39541e-13
3.01863e-14
-1.65791e-16
-9.93166e-17
-2.1892e-17
8.37534e-19
5.05818e-19
1.82667e-19
-2.54798e-21
-9.0898e-22
-2.98904e-24
-7.32709e-25
-2.93567e-25
-5.07338e-26
-5.73851e-28
2.45162e-29
2.59788e-22
-1.18578e-19
-7.99933e-20
5.3936e-19
2.22932e-18
-2.88117e-18
5.01079e-17
-2.40982e-16
2.71347e-15
-2.19896e-14
-4.1164e-13
1.35626e-12
-1.91238e-12
-1.87772e-11
-3.00406e-11
-3.30876e-11
-2.20929e-11
1.07805e-11
2.97299e-10
2.01505e-09
1.5887e-09
4.23917e-10
8.33952e-09
1.9031e-08
1.57374e-08
2.17577e-08
6.13598e-09
4.57701e-09
1.00029e-05
1.28206e-05
7.06232e-06
1.53548e-06
5.27372e-10
1.52678e-09
1.49671e-09
6.55848e-10
2.61293e-11
1.6135e-08
2.64403e-08
1.17512e-08
1.16485e-09
-7.89909e-11
-3.38264e-11
-4.2524e-12
9.11034e-14
4.93573e-14
1.01138e-14
-7.04584e-17
-4.07773e-17
-5.81691e-18
1.06213e-19
7.15062e-20
2.55587e-20
-1.2127e-22
-1.80136e-23
1.06689e-25
1.32775e-25
-5.38158e-26
-1.884e-27
-6.74276e-28
-2.63865e-23
-1.48358e-22
-2.74661e-20
7.42884e-22
2.97331e-19
-3.77044e-20
4.34138e-17
-7.0601e-17
5.12933e-16
-4.2014e-15
-2.06607e-15
3.52583e-13
1.11523e-14
1.6815e-13
-4.63805e-12
-1.08654e-11
-1.26486e-11
-7.10128e-12
3.39673e-11
2.96123e-10
8.06229e-10
4.13016e-10
-1.02565e-10
4.16065e-09
1.10091e-08
1.68173e-08
1.20796e-08
6.92973e-09
1.89045e-09
2.91187e-06
3.84581e-06
2.06719e-06
4.04058e-07
2.35301e-10
4.89033e-10
3.68699e-10
5.74399e-11
2.5129e-11
2.66882e-09
4.9657e-09
2.08448e-09
1.64037e-10
-1.80573e-11
-8.35895e-12
-9.38743e-13
3.15e-14
1.68172e-14
3.01985e-15
-2.82541e-17
-1.42557e-17
-9.42733e-19
-1.11793e-19
-4.53209e-21
-7.401e-23
-5.42473e-23
-1.27523e-23
5.32898e-25
2.28377e-25
8.94491e-27
1.4324e-28
-5.87501e-24
-2.20673e-23
-2.65995e-21
2.65079e-21
6.33451e-21
-5.16859e-20
2.1425e-17
1.22808e-17
1.86657e-17
3.27142e-16
-6.15845e-16
4.20779e-15
-8.10839e-15
1.07885e-13
4.7642e-14
2.34963e-13
-2.35381e-12
-3.23083e-12
3.60576e-12
4.50629e-12
2.26692e-10
2.25018e-10
1.31907e-11
2.6224e-11
2.79246e-10
4.14882e-09
7.22999e-09
5.98763e-09
2.70257e-09
5.61934e-10
7.9565e-07
1.09452e-06
5.68796e-07
9.64985e-08
9.0243e-11
9.42781e-11
5.33484e-11
1.6539e-11
1.77315e-11
3.84514e-10
8.43908e-10
3.37105e-10
1.53753e-11
-4.62766e-12
-2.0208e-12
-2.09869e-13
1.06099e-14
5.37973e-15
9.09202e-16
-9.32324e-18
-4.0901e-18
-3.73225e-19
-8.13214e-20
-4.29902e-21
-1.17093e-22
-4.00203e-23
-8.54835e-24
2.51921e-25
4.18957e-26
-7.15661e-27
5.23893e-27
-1.08826e-23
-1.28027e-23
9.40795e-22
4.03894e-21
-3.13474e-19
7.53874e-19
5.63667e-18
2.19581e-18
1.9393e-16
1.4432e-16
9.43031e-16
8.6552e-16
2.70152e-14
2.37829e-14
4.23638e-15
-5.3078e-14
-7.75742e-13
-6.68941e-14
7.88801e-13
4.75439e-13
3.29559e-11
2.30992e-11
-1.7101e-11
7.66837e-11
-8.45153e-12
8.80897e-10
2.07797e-09
1.73244e-09
8.50962e-10
2.39222e-10
2.00218e-07
2.88916e-07
1.41651e-07
1.9316e-08
1.36675e-11
1.82029e-11
1.27518e-11
1.30027e-11
1.06898e-11
3.02338e-11
1.17178e-10
4.82649e-11
3.90514e-12
-9.93269e-13
-4.47453e-13
-5.20712e-14
3.34274e-15
1.61111e-15
2.11497e-16
-4.36293e-18
-2.66007e-19
-1.28069e-19
-1.78591e-20
1.12678e-22
-2.85249e-25
-1.72426e-23
-7.77369e-24
-7.81928e-26
-1.69511e-26
8.883e-26
-3.42282e-24
-6.34125e-24
-1.67033e-24
1.7075e-21
-1.09161e-19
1.04044e-19
9.28717e-19
4.9744e-19
2.03823e-17
7.1418e-17
2.43701e-16
7.58143e-16
3.18746e-15
3.52251e-15
1.62674e-15
3.02359e-15
-2.63476e-13
-6.01254e-14
2.3517e-13
8.94535e-14
-1.11616e-12
4.11749e-12
2.68949e-12
8.63047e-13
-8.13423e-12
1.28217e-11
-1.9907e-12
4.4338e-10
5.07816e-10
2.8261e-10
8.68419e-11
4.39798e-08
6.69941e-08
3.03694e-08
2.8554e-09
2.42693e-11
5.84214e-12
5.73827e-12
5.13075e-12
9.34292e-12
1.35499e-13
1.5487e-11
6.3925e-12
4.22973e-13
-2.10453e-13
-9.52778e-14
-1.23278e-14
9.558e-16
4.35048e-16
2.37671e-17
1.49207e-18
-5.40932e-20
-1.6376e-20
-3.06898e-21
-1.05027e-22
-1.85371e-23
-1.35209e-23
-3.04295e-24
-6.99158e-26
7.77695e-26
-2.5838e-25
-5.41934e-25
1.37412e-24
9.60507e-23
2.97319e-22
6.91266e-21
-2.38959e-20
2.86561e-19
-6.11425e-19
1.38886e-17
2.9807e-18
3.20874e-18
8.40305e-17
1.17322e-15
-1.20246e-16
1.82997e-15
1.241e-15
2.1985e-16
-8.84578e-16
8.05162e-16
3.80508e-15
1.19841e-13
1.19286e-12
9.53738e-13
-8.65324e-13
-1.0848e-12
-8.33037e-12
-9.90592e-12
1.23699e-10
1.64373e-10
9.52501e-11
5.71476e-11
7.91302e-09
1.3012e-08
5.39609e-09
2.92422e-10
-8.25528e-13
1.91635e-13
1.94847e-12
3.23822e-12
5.77975e-13
-1.17839e-15
2.04391e-12
8.4341e-13
3.99316e-14
-4.52522e-14
-2.08311e-14
-2.54056e-15
2.26212e-16
8.22151e-17
6.58138e-19
2.30006e-19
4.91639e-21
-3.46313e-21
5.89855e-24
-9.60799e-24
-8.07303e-24
-4.38316e-24
-4.62203e-25
2.39379e-26
-1.3757e-26
-5.34717e-26
1.01797e-24
6.77853e-24
5.0854e-23
-3.27072e-22
-1.95705e-20
1.34039e-19
-4.36261e-19
-4.13522e-19
-7.23737e-20
5.32511e-20
-1.06595e-19
5.37977e-17
-1.56735e-16
2.17502e-16
6.6026e-16
2.67525e-16
-5.0677e-16
-1.17476e-15
-1.91734e-16
3.03025e-14
2.41769e-13
6.27264e-13
5.35565e-13
4.5529e-14
-4.13512e-12
-7.86e-12
-6.4375e-12
3.39287e-11
5.35241e-11
4.15338e-11
-3.13274e-13
1.01929e-09
2.18417e-09
7.45542e-10
-3.36375e-12
-2.83776e-12
-1.01886e-12
8.9848e-13
4.69194e-13
6.01428e-14
-5.97701e-17
2.68742e-13
1.10658e-13
3.28527e-15
-9.88642e-15
-4.6053e-15
-4.68093e-16
5.06625e-17
1.65344e-17
2.01428e-19
7.51272e-20
6.79918e-21
5.76413e-23
1.45779e-23
-2.9857e-24
-2.44095e-24
-7.12145e-25
-3.18059e-32
3.57962e-29
-6.25232e-27
6.85016e-26
9.8922e-25
9.36708e-24
2.95115e-24
-1.01532e-20
1.6812e-20
-5.41552e-20
-2.21913e-19
-1.29664e-19
-2.45991e-20
-1.07168e-19
-9.89935e-20
-1.52088e-17
1.69305e-17
7.97823e-17
1.33768e-16
-4.75676e-17
-3.5278e-16
-2.47073e-16