/*--------------------------------*- C++ -*----------------------------------*\
| =========                 |                                                 |
| \\      /  F ield         | OpenFOAM: The Open Source CFD Toolbox           |
|  \\    /   O peration     | Version:  v2106                                 |
|   \\  /    A nd           | Website:  www.openfoam.com                      |
|    \\/     M anipulation  |                                                 |
\*---------------------------------------------------------------------------*/
FoamFile
{
    version     2.0;
    format      ascii;
    arch        "LSB;label=32;scalar=64";
    class       volScalarField;
    location    "1";
    object      T;
}
// * * * * * * * * * * * * * * * * * * * * * * * * * * * * * * * * * * * * * //

dimensions      [0 0 0 1 0 0 0];

internalField   nonuniform List<scalar> 
3600
(
1
1
1
1
1
1
0.428571
0.047619
7.14285e-11
2.07825e-32
-1.32154e-38
4.47164e-33
2.21352e-33
5.06764e-34
4.96098e-42
2.88239e-43
-1.15426e-42
-7.09572e-42
-1.70707e-41
-1.59237e-41
-1.02061e-41
-2.01074e-41
-1.94254e-40
-2.3615e-39
-4.44545e-38
-2.53006e-35
-1.59304e-34
-8.50602e-34
-7.5206e-34
-7.16245e-34
-4.45937e-34
5.87468e-32
2.24124e-31
5.21951e-31
4.78535e-31
2.10919e-31
-5.28228e-33
-4.40862e-33
-3.02661e-33
-5.72483e-34
-1.31729e-38
-2.114e-39
-3.23713e-39
-2.1747e-37
-1.6632e-37
-8.94545e-38
-4.17605e-38
1.1423e-38
2.61487e-37
1.68073e-37
4.83704e-38
-7.24187e-39
-7.69933e-38
-3.83817e-38
-5.50578e-39
8.64887e-40
1.38124e-39
4.39687e-40
-2.66321e-41
-2.48181e-41
1
1
1
1
1
1
0.928571
0.496032
0.139881
-4.65897e-16
-1.9967e-16
-3.32784e-17
-4.46647e-27
4.17379e-27
4.17379e-27
4.18512e-27
4.34559e-27
4.58562e-27
3.9046e-27
2.57577e-27
1.84904e-27
3.98318e-27
2.08266e-26
5.03961e-26
4.10594e-26
1.03941e-26
-4.07435e-28
1.41737e-26
5.02316e-27
4.7909e-28
-1.16831e-30
-1.1717e-29
-2.55583e-28
-2.34253e-28
-6.45893e-29
1.86273e-31
2.1397e-32
4.76774e-33
1.62508e-33
6.17182e-34
1.61495e-34
5.25267e-36
1.85147e-36
1.60924e-37
-8.09745e-37
-5.26563e-36
-4.41403e-36
-2.97615e-36
-1.67984e-36
7.11691e-37
2.88903e-36
1.7083e-36
6.21637e-37
-2.93825e-37
-4.22683e-37
-1.39769e-37
-1.34716e-38
3.15904e-39
1.61447e-39
1.41576e-40
1
1
1
1
1
1
1
0.860119
0.5
0.15997
-4.79911e-10
-2.87947e-10
-1.34375e-10
-2.87943e-11
-8.6373e-20
-1.25454e-25
1.28475e-27
6.02172e-28
-1.17317e-27
-5.21036e-26
1.78683e-24
2.01118e-23
1.02435e-22
2.58748e-22
2.24683e-22
1.21135e-22
1.64307e-23
1.08461e-24
3.57534e-26
-2.43893e-27
3.14502e-27
3.17044e-27
9.61072e-28
-1.48185e-28
-6.05203e-29
-9.35765e-30
-4.54318e-32
-6.36988e-32
-9.1461e-32
-4.88819e-32
-1.79011e-32
1.23075e-33
7.40843e-34
3.35653e-34
7.58994e-35
4.31558e-36
-4.38309e-35
-3.69165e-35
-2.83397e-35
-1.4504e-35
-4.70631e-36
1.91746e-35
1.44769e-35
6.86365e-36
8.38547e-37
-2.32978e-36
-1.24868e-36
-1.66083e-37
4.53002e-38
1.694e-38
1
1
1
1
1
1
1
1
0.84003
0.5
0.164993
5.34585e-11
-1.34375e-10
-9.90759e-11
-3.96293e-11
-4.95222e-12
3.31585e-19
1.71814e-19
-9.37957e-19
-6.62932e-18
-1.59682e-17
-1.62124e-17
-9.3137e-18
-1.61637e-18
1.96011e-19
-2.46987e-20
1.74691e-23
1.34205e-23
5.68698e-24
5.53091e-25
1.64371e-25
1.39442e-25
3.36255e-26
4.92786e-28
-3.54687e-28
-8.66519e-29
1.96555e-30
1.46884e-30
1.02831e-32
-2.70031e-31
-1.7493e-31
-3.46301e-32
1.12258e-32
8.65481e-33
4.66397e-33
1.40578e-33
2.88922e-34
-3.35661e-34
-2.91203e-34
-2.18348e-34
-1.25729e-34
-4.18215e-35
7.85898e-35
7.37565e-35
3.54495e-35
7.81688e-36
-1.32296e-35
-7.20643e-36
-1.02754e-36
8.00201e-38
1
1
1
1
1
1
1
1
1
0.835007
0.5
0.166248
-1.34374e-10
-1.22607e-10
-7.77878e-11
-3.08803e-11
-3.71241e-12
3.27722e-16
1.87851e-16
7.71598e-17
9.3675e-18
-1.2992e-17
-1.8561e-17
-1.08092e-17
-3.59844e-18
-2.02693e-20
-8.39925e-22
-5.85723e-23
3.46527e-23
1.29629e-23
1.69397e-24
1.49786e-25
7.78893e-26
4.09831e-26
5.82879e-27
1.30674e-30
1.80576e-29
1.11288e-29
7.30304e-30
-2.04447e-30
-2.07216e-30
-1.01206e-30
7.57092e-32
1.23311e-31
7.38565e-32
2.83902e-32
7.80277e-33
3.12611e-33
-2.35215e-33
-2.34694e-33
-1.90029e-33
-1.12038e-33
-4.20118e-34
1.30965e-34
3.03848e-34
1.62692e-34
3.38624e-35
-2.38313e-35
-1.22547e-35
-1.49126e-36
1
1
1
1
1
1
1
1
1
1
0.833752
0.5
0.166562
-6.45846e-10
-4.33891e-10
-2.40674e-10
-8.63258e-11
-4.59841e-12
1.22718e-15
8.8387e-16
5.39357e-16
3.14435e-16
2.03715e-16
1.71041e-17
4.14749e-18
-2.11953e-19
-4.79012e-20
-3.67347e-21
-2.14866e-22
-1.11132e-23
-8.8049e-25
-2.07246e-25
5.61964e-26
8.71607e-26
2.43676e-26
1.23252e-27
2.69263e-28
1.1828e-28
5.42348e-29
2.29953e-29
-1.5859e-29
-1.18839e-29
-5.24029e-30
4.28915e-31
1.2488e-30
7.068e-31
2.05819e-31
5.28875e-32
2.16789e-32
-1.52585e-32
-1.57769e-32
-1.32805e-32
-7.92599e-33
-3.34773e-33
-4.27992e-34
8.90423e-34
5.07662e-34
1.43036e-34
-2.97996e-35
-1.08259e-35
0.428571
0.928571
1
1
1
1
1
1
1
1
1
0.833438
0.5
0.166641
-1.27296e-10
-2.40656e-10
-1.9843e-10
-8.8928e-11
-1.70286e-11
1.92887e-15
1.50947e-15
9.58428e-16
2.53127e-16
-7.56573e-18
-2.96604e-18
9.12931e-19
9.87714e-20
-2.40643e-20
-5.91869e-21
2.70477e-22
1.94998e-22
7.49801e-23
-1.94262e-24
-3.8045e-25
-8.20605e-26
-2.04847e-27
-1.64688e-27
8.2156e-29
5.1844e-28
3.97318e-28
9.31391e-29
-7.73415e-29
-4.63478e-29
-1.83312e-29
-2.03505e-30
6.92777e-30
4.08768e-30
1.68536e-30
3.65286e-31
1.02698e-31
-1.02242e-31
-9.6412e-32
-7.35784e-32
-4.26778e-32
-1.77215e-32
-1.18259e-33
2.18746e-33
1.54028e-33
4.78832e-34
-4.26953e-35
0.047619
0.496032
0.860119
1
1
1
1
1
1
1
1
1
0.833359
0.5
0.16666
-2.40833e-10
-2.26718e-10
-1.59052e-10
-6.9957e-11
-1.25103e-11
4.12897e-15
3.35455e-15
9.85326e-16
-1.5147e-16
-9.50054e-17
-1.6566e-17
-1.78567e-20
-3.67726e-20
-1.83797e-20
-2.84085e-21
4.29217e-22
3.07373e-22
9.49794e-23
-2.81389e-25
-2.27496e-25
-1.20579e-25
-5.14864e-26
-1.67842e-26
2.22149e-27
5.16753e-27
2.54222e-27
1.20897e-28
-1.45351e-28
-9.67808e-29
-4.49873e-29
-8.69218e-30
2.18573e-29
1.53338e-29
7.84784e-30
2.84249e-30
6.03145e-31
-8.3895e-31
-6.54017e-31
-4.0839e-31
-2.10592e-31
-7.47194e-32
1.74023e-32
1.43499e-32
7.19481e-33
9.43955e-34
7.14285e-11
0.139881
0.5
0.84003
1
1
1
1
1
1
1
1
1
0.83334
0.5
0.166665
-7.57083e-10
-5.47466e-10
-3.35422e-10
-1.41266e-10
-2.07631e-11
2.71543e-15
1.24083e-15
-3.11051e-17
-6.60497e-17
-2.12395e-17
4.4954e-19
1.7924e-19
-1.70369e-20
-1.28507e-20
-1.79889e-21
1.65036e-22
9.73311e-23
1.70506e-23
1.73793e-24
-6.64343e-25
-4.88215e-25
-2.7378e-25
-1.20556e-25
-2.36053e-26
1.79635e-26
1.36487e-26
2.96429e-27
-4.13105e-28
-3.22002e-28
-1.73021e-28
-4.35691e-29
7.26097e-29
5.64595e-29
3.09765e-29
1.27718e-29
2.43914e-30
-4.18147e-30
-2.83966e-30
-1.61559e-30
-7.94143e-31
-2.70973e-31
7.96673e-32
5.41387e-32
1.32218e-32
7.5117e-17
-3.1717e-16
0.15997
0.5
0.835007
1
1
1
1
1
1
1
1
1
0.833335
0.5
0.166666
-2.67239e-10
-3.35158e-10
-2.75657e-10
-1.32108e-10
-2.69972e-11
2.65302e-16
-1.06001e-17
-2.42432e-17
-3.10545e-18
3.55527e-18
2.34666e-18
-8.43015e-20
-5.66192e-20
-1.87796e-20
-1.54688e-22
1.12114e-23
2.29017e-23
1.10071e-23
3.29634e-24
-9.76674e-25
-8.96322e-25
-7.14636e-25
-4.2362e-25
-1.44091e-25
1.2943e-26
8.04923e-27
-8.67703e-28
-2.06453e-27
-1.68216e-27
-9.31094e-28
-2.93853e-28
2.53955e-28
2.12122e-28
1.20382e-28
4.94974e-29
1.35284e-30
-8.57254e-30
-6.90714e-30
-4.45317e-30
-2.42002e-30
-8.24262e-31
5.04095e-31
2.064e-31
1.4443e-18
-1.35713e-16
-4.79911e-10
0.164993
0.5
0.833752
1
1
1
1
1
1
1
1
1
0.833334
0.5
0.166667
-3.4443e-10
-3.22443e-10
-2.25181e-10
-9.86721e-11
-1.50865e-11
4.47588e-17
4.44811e-17
4.27652e-17
3.23031e-17
1.60425e-17
9.3016e-19
1.57178e-19
-1.24875e-20
-4.30952e-21
-1.53514e-22
1.92987e-23
1.98784e-23
1.63674e-23
7.20546e-24
1.51618e-24
-1.17288e-25
-3.66449e-25
-2.24152e-25
3.10271e-27
2.19834e-26
1.40697e-26
-1.09913e-26
-1.20991e-26
-8.9506e-27
-4.99894e-27
-1.7591e-27
9.62005e-28
8.50277e-28
4.95166e-28
1.99027e-28
-2.07197e-29
-3.04167e-29
-2.23441e-29
-1.33885e-29
-6.34821e-30
-1.17421e-30
8.10379e-31
6.66171e-20
-2.22982e-17
-2.87947e-10
5.34255e-11
0.166248
0.5
0.833438
1
1
1
1
1
1
1
1
1
0.833333
0.5
0.166667
-8.99387e-10
-6.9823e-10
-3.82019e-10
-1.25705e-10
2.83957e-16
2.79019e-16
2.17644e-16
1.54981e-16
7.61567e-17
1.20348e-17
-1.97566e-19
-1.52378e-19
-5.54608e-20
2.07056e-22
-3.76937e-23
5.77292e-24
1.392e-23
1.39662e-23
1.47165e-23
8.54577e-24
3.68776e-24
1.09691e-24
5.62354e-25
3.1703e-25
1.77253e-25
7.11626e-26
-2.72442e-26
-5.59171e-26
-4.31948e-26
-2.43611e-26
-8.90093e-27
2.96881e-27
2.46955e-27
1.48685e-27
5.90711e-28
-4.93505e-29
-9.68163e-29
-6.99242e-29
-3.88784e-29
-1.50445e-29
-1.4157e-31
1.85277e-30
4.42986e-26
-1.34374e-10
-1.34359e-10
-1.34387e-10
0.166562
0.5
0.833359
1
1
1
1
1
1
1
1
1
0.833333
0.5
0.166667
-4.33546e-10
-4.72207e-10
-3.52043e-10
-1.42897e-10
-1.93506e-11
3.79359e-16
3.43755e-16
2.3644e-16
9.07798e-17
8.58929e-19
-2.11818e-19
-2.66331e-19
-4.07904e-20
-2.91183e-21
-9.28011e-23
-5.48657e-23
-2.47689e-23
2.41606e-24
3.09354e-23
2.29367e-23
1.35231e-23
7.79603e-24
4.05304e-24
2.30002e-24
1.43714e-24
8.31087e-25
-1.54175e-25
-3.80993e-25
-2.91357e-25
-1.52198e-25
-3.8935e-26
1.14263e-26
8.0766e-27
4.64837e-27
1.94148e-27
-1.42951e-28
-2.51866e-28
-1.9954e-28
-1.05687e-28
-1.60138e-29
-2.45113e-30
2.63632e-26
-2.87799e-11
-9.89123e-11
-1.22539e-10
-6.4652e-10
0.166641
0.5
0.83334
1
1
1
1
1
1
1
1
1
0.833333
0.5
0.166667
-5.27386e-10
-4.7155e-10
-2.91021e-10
-1.16392e-10
-1.46953e-11
3.6118e-16
3.47729e-16
2.29742e-16
6.68055e-17
-9.26044e-19
-7.53351e-19
-2.78382e-19
-1.70903e-21
-7.36875e-22
-5.99556e-22
-3.93463e-22
-2.01788e-22
-5.09015e-23
8.28528e-23
7.18791e-23
5.63385e-23
4.01699e-23
2.76105e-23
1.82218e-23
1.15338e-23
5.12209e-24
-1.12702e-24
-1.66936e-24
-1.2347e-24
-5.84923e-25
-5.75975e-26
5.12215e-26
3.69718e-26
2.0311e-26
7.49778e-27
-1.57908e-27
-1.2077e-27
-6.98271e-28
-1.75089e-28
-2.45113e-30
1.92946e-26
-8.6807e-20
-3.95247e-11
-7.75933e-11
-4.34238e-10
-1.28864e-10
0.16666
0.5
0.833335
1
1
1
1
1
1
1
1
1
0.833333
0.5
0.166667
-9.32113e-10
-7.67897e-10
-4.21211e-10
-1.44273e-10
-2.94835e-12
3.35275e-16
3.05263e-16
1.73926e-16
3.54217e-17
-6.1966e-19
-3.95638e-19
-9.60344e-20
-4.53949e-21
-3.9518e-21
-2.70632e-21
-1.7786e-21
-8.67961e-22
-7.51224e-23
1.78622e-22
1.76742e-22
1.71521e-22
1.55221e-22
1.59447e-22
1.26978e-22
6.31132e-23
2.01845e-23
-9.05633e-24
-7.85081e-24
-4.6529e-24
-1.88485e-24
7.47904e-26
2.40025e-25
1.71539e-25
8.17996e-26
8.01574e-27
-5.07964e-27
-4.08395e-27
-1.3767e-27
-2.45109e-30
1.06849e-26
2.1069e-22
-4.89239e-12
-3.07034e-11
-2.40512e-10
-2.39879e-10
-2.47706e-10
0.166665
0.5
0.833334
1
1
1
1
1
1
1
1
1
0.833333
0.5
0.166667
-4.40027e-10
-5.73429e-10
-4.45137e-10
-1.82469e-10
-2.46615e-11
2.88836e-16
2.32137e-16
1.01396e-16
1.25431e-17
-1.70579e-19
-7.14699e-20
-3.47977e-20
-2.85223e-20
-2.20323e-20
-1.29173e-20
-6.88432e-21
-2.60422e-21
-3.60765e-24
5.19428e-23
9.42185e-23
1.13582e-22
1.4396e-22
2.42009e-22
3.43502e-22
2.04177e-22
6.98559e-23
-2.50415e-23
-2.31122e-23
-1.40368e-23
-5.49164e-24
7.31742e-25
8.93845e-25
5.94154e-25
2.31296e-25
-1.83171e-26
-2.03641e-26
-7.78255e-27
-2.45067e-30
4.61656e-27
1.15249e-22
1.71058e-20
-3.56923e-12
-8.66477e-11
-1.92618e-10
-2.30182e-10
-7.90597e-10
0.166666
0.5
0.833333
1
1
1
1
1
1
1
1
1
0.833333
0.5
0.166667
-5.78681e-10
-5.34522e-10
-3.51109e-10
-1.39539e-10
-1.44642e-11
5.20491e-16
3.34737e-16
1.44503e-16
3.73266e-17
1.38362e-19
1.28262e-20
-3.29648e-20
-4.35007e-20
-5.38446e-20
-3.81675e-20
-1.9172e-20
-6.16689e-21
-1.61783e-21
-1.15604e-21
-8.12111e-22
-5.73513e-22
-1.99347e-22
1.67731e-22
5.73502e-22
3.86312e-22
1.28026e-22
-5.50741e-23
-5.33463e-23
-3.62739e-23
-1.44913e-23
2.8309e-24
3.1399e-24
1.88651e-24
6.38083e-25
-9.89642e-26
-4.99589e-26
-2.44775e-30
1.07928e-27
4.64172e-23
8.27925e-21
2.31915e-20
-4.12168e-12
-8.17844e-11
-1.5178e-10
-5.85498e-10
-2.83676e-10
0.166667
0.5
0.833333
1
1
1
1
1
1
1
1
1
0.833333
0.5
0.166667
-8.16761e-10
-7.15985e-10
-4.35601e-10
-1.57719e-10
-7.41551e-12
1.85856e-15
1.13655e-15
5.19759e-16
1.68019e-16
3.11111e-19
5.33464e-20
2.54493e-21
-2.99335e-20
-8.50493e-20
-1.03012e-19
-7.12462e-20
-3.17305e-20
-1.28706e-20
-8.78809e-21
-6.52625e-21
-4.68376e-21
-2.67789e-21
-7.55041e-22
9.89677e-22
7.13234e-22
2.47868e-22
-1.28688e-22
-1.3447e-22
-9.56688e-23
-3.63763e-23
9.7981e-24
9.26666e-24
4.89885e-24
1.23495e-24
-2.45068e-25
-2.42515e-30
2.95283e-29
1.17178e-23
2.34205e-21
1.51883e-20
1.5047e-19
-1.13864e-11
-6.04368e-11
-2.9498e-10
-3.98027e-10
-4.20768e-10
0.166667
0.5
0.833333
1
1
1
1
1
1
1
1
1
0.833333
0.5
0.166667
-1.4997e-10
-6.57615e-10
-4.31863e-10
-1.61569e-10
-1.93503e-11
7.11002e-15
4.34131e-15
2.00879e-15
6.43106e-16
2.36921e-18
3.67021e-19
7.46944e-19
7.71878e-19
4.01928e-19
-1.00992e-19
-1.11772e-19
-8.61767e-20
-6.44436e-20
-4.93145e-20
-3.64245e-20
-2.4522e-20
-1.33178e-20
-2.79826e-21
2.05844e-21
1.55332e-21
5.25308e-22
-2.91923e-22
-2.99652e-22
-2.01647e-22
-6.81277e-23
2.82185e-23
2.19102e-23
1.03226e-23
8.52578e-25
-1.9121e-30
2.81506e-31
6.06113e-25
1.71717e-22
7.01918e-21
1.43856e-19
-2.4463e-19
-6.47356e-12
-8.18566e-11
-2.72151e-10
-3.72096e-10
-9.68665e-10
0.166667
0.5
0.833333
1
1
1
1
1
1
1
1
1
0.833333
0.5
0.166667
-2.97572e-10
-9.71819e-10
-6.06159e-10
-2.49881e-10
-4.82294e-11
2.50098e-14
1.53106e-14
7.07647e-15
2.12371e-15
1.07304e-16
-1.14734e-17
-6.41061e-18
-2.63733e-18
-1.32248e-18
-5.90685e-19
-4.16595e-19
-3.24413e-19
-2.6469e-19
-2.0804e-19
-1.50177e-19
-9.46548e-20
-4.32417e-20
8.35066e-21
9.45997e-21
6.21011e-21
1.96321e-21
-1.12073e-21
-7.96181e-22
-4.4271e-22
-1.30486e-22
9.5294e-23
7.00318e-23
1.90339e-23
-5.30566e-31
-8.00191e-29
1.03518e-25
2.30334e-24
2.37049e-21
8.40945e-20
2.47647e-19
1.61563e-18
-1.06793e-17
-1.0866e-10
-2.25488e-10
-7.46353e-10
-4.65695e-10
0.166667
0.5
0.833333
1
1
1
1
1
1
1
1
1
0.833333
0.5
0.166667
-9.08034e-11
-1.77532e-09
-1.10253e-09
-4.78561e-10
-1.11955e-10
8.09384e-14
4.96613e-14
2.28121e-14
6.85751e-15
3.60368e-16
-1.29955e-16
-7.74284e-17
-3.58291e-17
-1.32022e-17
-1.7603e-18
-1.43722e-18
-1.21685e-18
-1.00266e-18
-7.53066e-19
-5.10744e-19
-2.8366e-19
-7.29049e-20
3.04725e-20
2.44595e-20
1.67506e-20
4.58495e-21
-3.18147e-21
-2.13478e-21
-1.03381e-21
-1.95639e-22
1.65462e-22
9.60807e-23
-8.13105e-39
-3.74904e-27
6.26252e-26
1.15985e-24
4.60142e-23
3.80178e-20
2.07693e-19
1.13657e-18
7.38322e-18
-1.36672e-11
-8.78393e-11
-3.83211e-10
-5.26773e-10
-5.26772e-10
0.166667
0.5
0.833333
1
1
1
1
1
1
1
1
1
0.833333
0.5
0.166667
1.44873e-09
-3.70736e-09
-2.297e-09
-1.02055e-09
-2.56533e-10
2.44483e-13
1.50238e-13
6.89671e-14
2.05132e-14
1.0304e-15
-6.84022e-16
-4.12339e-16
-1.88786e-16
-5.88788e-17
-5.72064e-18
-4.6769e-18
-4.02199e-18
-3.28461e-18
-2.36719e-18
-1.48133e-18
-6.81765e-19
2.11226e-19
1.69788e-19
8.99828e-20
4.42846e-20
8.60313e-23
-6.3021e-21
-4.92914e-21
-2.31768e-21
1.81873e-22
2.96219e-22
-9.29593e-39
-3.74047e-27
-4.59547e-26
6.11331e-25
1.45077e-23
1.25327e-20
1.35658e-19
7.38104e-19
4.78312e-18
2.64875e-17
-9.66031e-12
-1.1591e-10
-3.85886e-10
-4.79934e-10
-9.2558e-10
0.166667
0.5
0.833333
1
1
1
1
1
1
1
1
1
0.833333
0.5
0.166667
2.93549e-09
-8.05322e-09
-4.98689e-09
-2.23176e-09
-5.66523e-10
6.97681e-13
4.2958e-13
1.97067e-13
5.84198e-14
2.06576e-15
-2.48873e-15
-1.84176e-15
-8.55992e-16
-2.69259e-16
-2.22563e-17
-1.22067e-17
-1.13485e-17
-9.37902e-18
-6.45259e-18
-3.65636e-18
-9.09451e-19
5.61758e-19
4.65463e-19
2.68893e-19
9.62041e-20
-3.08184e-20
-2.41535e-20
-1.36669e-20
-4.63124e-21
1.34537e-21
2.56164e-36
-3.21427e-27
-5.87377e-26
-6.08865e-25
3.78457e-24
1.25652e-21
7.51182e-20
4.63624e-19
2.66469e-18
1.67192e-17
8.46004e-17
-5.70006e-16
-1.54488e-10
-3.03756e-10
-7.68107e-10
-4.02945e-10
0.166667
0.5
0.833333
1
1
1
1
1
1
1
1
1
0.833333
0.5
0.166667
6.89185e-09
-1.72822e-08
-1.07065e-08
-4.78966e-09
-1.19787e-09
1.90562e-12
1.17576e-12
5.39595e-13
1.62159e-13
-2.37091e-15
-3.29448e-15
-2.71224e-15
-1.53907e-15
-6.54563e-16
-1.70168e-16
-3.99058e-17
-3.11555e-17
-2.34135e-17
-1.5381e-17
-7.06333e-18
1.5424e-18
1.77575e-18
1.32624e-18
6.62808e-19
6.51005e-20
-6.91499e-20
-5.52527e-20
-2.93844e-20
-3.72636e-21
1.06209e-34
-2.11492e-27
-5.29294e-26
-6.17919e-25
-2.4337e-24
-3.3275e-22
3.08433e-20
2.51327e-19
1.36041e-18
8.56333e-18
5.32405e-17
3.1953e-16
-1.94073e-11
-1.20713e-10
-4.27425e-10
-5.93251e-10
-3.83296e-10
0.166667
0.5
0.833333
1
1
1
1
1
1
1
1
1
0.833333
0.5
0.166667
1.55158e-08
-3.59366e-08
-2.22802e-08
-9.93334e-09
-2.42601e-09
5.07461e-12
3.13717e-12
1.44473e-12
4.26477e-13
-1.20773e-14
-8.74669e-15
-5.5364e-15
-3.11368e-15
-1.41933e-15
-3.8859e-16
-1.22001e-16
-7.98232e-17
-5.42829e-17
-3.17727e-17
-9.25276e-18
7.39459e-18
5.9506e-18
3.55756e-18
1.31778e-18
-3.58329e-19
-2.83576e-19
-1.68364e-19
-3.98784e-20
2.55679e-33
-1.11467e-27
-3.64988e-26
-5.13365e-25
-2.60622e-24
-2.13879e-22
-1.88951e-21
7.49821e-20
5.87302e-19
3.75664e-18
2.64939e-17
1.98843e-16
1.51135e-15
-1.45867e-11
-1.46407e-10
-4.18892e-10
-7.07688e-10
-3.18818e-10
0.166667
0.5
0.833333
1
1
1
1
1
1
1
1
1
0.833333
0.5
0.166667
3.00614e-08
-7.205e-08
-4.47082e-08
-1.98431e-08
-4.72143e-09
1.35139e-11
8.36686e-12
3.85703e-12
1.13245e-12
-2.85077e-14
-1.92898e-14
-1.13215e-14
-5.96656e-15
-2.58548e-15
-7.29249e-16
-3.27923e-16
-1.95323e-16
-1.1986e-16
-5.75619e-17
1.12683e-17
1.87765e-17
1.51441e-17
7.77044e-18
9.10975e-19
-9.17574e-19
-7.35113e-19
-2.61168e-19
2.70835e-32
-3.47488e-28
-2.19087e-26
-3.54312e-25
-2.29621e-24
-9.70391e-23
-2.49195e-21
1.41294e-20
1.57505e-19
1.14209e-18
1.04598e-17
9.64753e-17
9.2796e-16
7.59355e-15
-3.95622e-12
-1.45019e-10
-4.53303e-10
-1.21701e-09
1.19285e-09
0.166667
0.5
0.833333
1
1
1
1
1
1
1
1
1
0.833333
0.5
0.166667
5.72131e-08
-1.39414e-07
-8.6584e-08
-3.825e-08
-8.87517e-09
3.68798e-11
2.2828e-11
1.05265e-11
3.10659e-12
-5.43218e-14
-3.91042e-14
-2.20398e-14
-1.08346e-14
-4.49002e-15
-1.50196e-15
-8.22773e-16
-4.71232e-16
-2.59713e-16
-8.88956e-17
6.98203e-17
5.88291e-17
3.60073e-17
1.40713e-17
-2.77857e-18
-2.78118e-18
-1.1657e-18
1.95156e-31
-3.20203e-28
-1.17396e-26
-2.2302e-25
-1.70736e-24
-3.59939e-23
-1.45238e-21
-1.03902e-20
3.53512e-20
4.27978e-19
2.87736e-18
3.40352e-17
4.38239e-16
4.63229e-15
3.6168e-14
-5.55952e-12
-1.7227e-10
-7.54948e-10
-2.77893e-09
2.81425e-09
0.166667
0.5
0.833333
1
1
1
1
1
1
1
1
1
0.833333
0.5
0.166667
1.05759e-07
-2.61362e-07
-1.62459e-07
-7.14628e-08
-1.62255e-08
1.03972e-10
6.42527e-11
2.96166e-11
8.7774e-12
-8.70401e-14
-6.936e-14
-3.84405e-14
-1.92626e-14
-8.58819e-15
-3.57431e-15
-2.01586e-15
-1.16861e-15
-5.49338e-16
-2.23972e-17
1.63179e-16
1.35483e-16
7.20519e-17
8.96469e-18
-8.40706e-18
-5.06919e-18
1.44628e-30
-3.01743e-28
-6.54668e-27
-1.32943e-25
-1.21815e-24
-9.95579e-24
-6.28422e-22
-6.40194e-21
-2.81645e-20
1.07747e-19
1.14962e-18
1.19623e-17
1.63878e-16
2.17591e-15
2.20447e-14
1.57641e-13
-2.33696e-11
-3.19029e-10
-1.71589e-09
-7.11079e-09
8.11121e-09
0.166667
0.5
0.833333
1
1
1
1
1
1
1
1
1
0.833333
0.5
0.166667
1.87424e-07
-4.77488e-07
-2.97043e-07
-1.30216e-07
-2.90908e-08
2.98251e-10
1.83993e-10
8.46793e-11
2.50063e-11
-1.19409e-13
-9.83219e-14
-6.17244e-14
-3.47049e-14
-1.74564e-14
-8.8805e-15
-5.07775e-15
-2.87777e-15
-9.86749e-16
4.17826e-16
4.25999e-16
2.73039e-16
9.50999e-17
-3.01129e-17
-1.89129e-17
1.46735e-29
-2.25383e-28
-5.05787e-27
-8.03655e-26
-8.38346e-25
-5.54415e-24
-1.75355e-22
-3.08554e-21
-1.93675e-20
-7.77334e-20
1.65613e-19
1.27508e-18
2.43239e-17
7.70281e-16
1.02938e-14
9.6161e-14
6.25456e-13
-7.37601e-11
-7.67325e-10
-4.38743e-09
-1.82606e-08
2.16031e-08
0.166667
0.5
0.833333
1
1
1
1
1
1
1
1
1
0.833333
0.5
0.166667
3.26118e-07
-8.56185e-07
-5.33017e-07
-2.33133e-07
-5.15943e-08
8.46732e-10
5.21829e-10
2.39533e-10
6.97698e-11
-1.46668e-13
-1.37392e-13
-1.01504e-13
-6.84755e-14
-4.15567e-14
-2.43451e-14
-1.43974e-14
-7.73655e-15
-2.15036e-15
1.28699e-15
9.82236e-16
4.32643e-16
1.4782e-17
-3.88803e-17
9.68257e-30
5.43501e-29
-3.12055e-27
-4.93916e-26
-5.53713e-25
-3.28392e-24
-2.27834e-23
-1.15515e-21
-1.07182e-20
-6.44242e-20
-1.52215e-19
-7.32194e-20
7.31542e-19
5.10556e-17
3.53019e-15
4.47579e-14
3.82097e-13
2.26709e-12
-2.11481e-10
-1.99755e-09
-1.12726e-08
-4.53221e-08
4.99422e-08
0.166667
0.5
0.833333
1
1
1
1
1
1
1
1
1
0.833333
0.5
0.166668
5.54747e-07
-1.51822e-06
-9.45693e-07
-4.13205e-07
-9.11663e-08
2.31904e-09
1.42906e-09
6.53604e-10
1.86048e-10
-1.32731e-13
-1.45876e-13
-1.25439e-13
-9.74043e-14
-7.13878e-14
-4.87375e-14
-3.39413e-14
-1.8929e-14
-2.9717e-15
1.68756e-15
1.29029e-15
3.1012e-16
-1.41569e-16
3.24934e-30
9.0663e-29
2.19548e-27
-1.99257e-26
-2.94082e-25
-1.95526e-24
-6.05968e-24
-1.14199e-22
-4.42171e-21
-3.71235e-20
-1.75172e-19
-1.7406e-19
2.45562e-19
4.4772e-18
1.08478e-16
1.49308e-14
1.77385e-13
1.38738e-12
7.55228e-12
-5.69314e-10
-5.1455e-09
-2.80038e-08
-1.07613e-07
1.11268e-07
0.166667
0.5
0.833333
1
1
1
1
1
1
1
1
1
0.833333
0.500001
0.166668
9.1707e-07
-2.67947e-06
-1.66955e-06
-7.29429e-07
-1.61076e-07
6.02478e-09
3.71487e-09
1.69125e-09
4.67043e-10
7.31232e-14
-1.75908e-13
-1.51868e-13
-1.14633e-13
-8.18879e-14
-1.61422e-14
-3.1128e-15
8.31995e-15
9.43137e-15
6.6463e-15
2.22999e-15
-8.8328e-16
4.77345e-31
9.01871e-29
1.42006e-27
3.47773e-26
-4.41552e-26
-7.52757e-25
-3.59928e-24
3.9788e-24
-7.70417e-22
-1.59084e-20
-1.26137e-19
-2.53747e-19
-4.82909e-20
2.04603e-18
1.74672e-17
2.70426e-16
5.73692e-14
6.42191e-13
4.62999e-12
2.32702e-11
-1.45418e-09
-1.27567e-08
-6.65632e-08
-2.4401e-07
2.36726e-07
0.166667
0.5
0.833333
1
1
1
1
1
1
1
1
1
0.833334
0.500001
0.166669
1.49655e-06
-4.72354e-06
-2.94334e-06
-1.28632e-06
-2.84305e-07
1.47168e-08
9.0835e-09
4.11226e-09
1.09541e-09
1.45948e-12
-6.16887e-13
-4.08387e-13
-2.25509e-13
-7.55042e-14
1.34062e-13
1.12117e-13
7.84562e-14
4.73941e-14
2.08653e-14
-3.26385e-15
2.372e-31
7.94158e-29
1.101e-27
1.70177e-26
7.11102e-26
3.22186e-25
1.67298e-25
3.33209e-24
3.97944e-23
-3.56158e-21
-5.3991e-20
-2.31918e-19
-1.89984e-19
7.08063e-19
6.91964e-18
1.87401e-17
9.7451e-16
2.04804e-13
2.13967e-12
1.42935e-11
6.67228e-11
-3.52967e-09
-3.02128e-08
-1.51093e-07
-5.28765e-07
4.78389e-07
0.166668
0.500001
0.833333
1
1
1
1
1
1
1
1
1
0.833334
0.500002
0.166671
2.5315e-06
-8.31486e-06
-5.18047e-06
-2.26385e-06
-4.98771e-07
3.36815e-08
2.08135e-08
9.36046e-09
2.39553e-09
6.06456e-12
-3.38491e-12
-2.05364e-12
-9.23144e-13
-1.54528e-13
4.98421e-13
3.97817e-13
2.57998e-13
1.38783e-13
2.45291e-14
1.87145e-31
5.83815e-29
7.21449e-28
8.31781e-27
5.98329e-26
2.68301e-25
5.23166e-25
2.45833e-24
3.84697e-23
-1.60493e-22
-1.14644e-20
-1.18633e-19
-3.32922e-19
-6.74702e-20
2.31392e-18
2.21251e-17
-6.15663e-17
1.7025e-16
6.622e-13
6.58479e-12
4.10562e-11
1.78992e-10
-8.14451e-09
-6.82815e-08
-3.2775e-07
-1.09668e-06
9.27638e-07
0.166669
0.500002
0.833333
0.999999
1
1
1
1
1
1
1
1
0.833335
0.500004
0.166675
4.57219e-06
-1.4558e-05
-9.06836e-06
-3.95866e-06
-8.63345e-07
7.21836e-08
4.46594e-08
1.99337e-08
4.88589e-09
1.68312e-11
-1.47758e-11
-8.90344e-12
-3.90784e-12
-7.80004e-13
1.35456e-12
1.04887e-12
6.63639e-13
2.11857e-13
-2.33885e-30
1.03205e-29
1.79995e-28
2.98939e-27
3.01361e-26
1.54635e-25
4.60543e-25
1.62032e-24
2.21043e-23
1.48519e-22
-6.58469e-22
-4.21116e-20
-2.24283e-19
-8.67435e-19
-2.53401e-19
2.15591e-17
-2.52327e-17
-1.29498e-16
-3.67946e-15
1.98454e-12
1.88504e-11
1.10321e-10
4.51335e-10
-1.78881e-08
-1.47394e-07
-6.80403e-07
-2.18075e-06
1.7274e-06
0.166671
0.500003
0.833333
0.999999
1
1
1
1
1
1
1
1
0.833337
0.500009
0.166683
8.8131e-06
-2.51976e-05
-1.56933e-05
-6.83455e-06
-1.46482e-06
1.45006e-07
8.98159e-08
3.97578e-08
9.33297e-09
3.41881e-11
-5.00078e-11
-3.0273e-11
-1.33656e-11
-3.00248e-12
3.20051e-12
2.59404e-12
1.12484e-12
-9.64851e-31
-1.48043e-29
1.1651e-29
-3.8898e-28
2.17214e-27
4.18414e-26
2.16846e-25
8.54616e-25
9.74613e-24
8.97071e-23
5.32866e-22
-3.18581e-21
-1.02431e-19
-6.61142e-19
-2.11136e-18
1.91803e-17
9.25112e-18
-8.40357e-17
-2.2425e-15
-2.50944e-14
5.53369e-12
5.04683e-11
2.78615e-10
1.07408e-09
-3.74601e-08
-3.04363e-07
-1.35411e-06
-4.16497e-06
3.09137e-06
0.166675
0.500005
0.833333
0.999999
1
1
1
1
1
1
1
1
0.83334
0.500017
0.166697
1.76024e-05
-4.28359e-05
-2.66776e-05
-1.15812e-05
-2.44354e-06
2.73524e-07
1.69614e-07
7.4517e-08
1.70943e-08
4.80272e-11
-1.38449e-10
-8.43415e-11
-3.73274e-11
-8.63132e-12
6.22912e-12
4.17577e-12
-1.19651e-31
-1.11077e-29
-1.20577e-29
-5.2945e-29
4.41509e-28
-2.29638e-28
1.91134e-26
2.5245e-25
2.40447e-24
3.97346e-23
4.9245e-22
-4.75308e-23
-2.80968e-20
-3.80823e-19
-3.94483e-18
1.28771e-17
1.69724e-17
-3.86859e-17
-1.09301e-15
-1.5201e-14
-1.16081e-13
1.44143e-11
1.26946e-10
6.64012e-10
2.4209e-09
-7.49313e-08
-6.02279e-07
-2.58807e-06
-7.65426e-06
5.33202e-06
0.166682
0.500009
0.833334
0.999998
1
1
1
1
1
1
1
0.999999
0.833346
0.500032
0.166725
3.49181e-05
-7.11279e-05
-4.4313e-05
-1.9308e-05
-4.18563e-06
4.85482e-07
3.0159e-07
1.33181e-07
3.17672e-08
2.66174e-11
-3.26519e-10
-1.99977e-10
-8.83526e-11
-1.72331e-11
6.51483e-12
-5.52923e-32
-4.42418e-30
-8.02857e-30
-2.74194e-29
-1.31301e-30
-2.90607e-28
-2.01861e-27
-1.34796e-25
3.59272e-25
1.02686e-23
2.55338e-22
1.1652e-21
-6.47751e-21
-1.79011e-19
-4.50076e-18
-2.0448e-19
9.85787e-18
-1.35737e-17
-4.39066e-16
-7.16541e-15
-7.06008e-14
-4.29424e-13
3.52199e-11
3.01193e-10
1.49864e-09
5.18401e-09
-1.43431e-07
-1.14415e-06
-4.75922e-06
-1.35616e-05
8.87788e-06
0.166692
0.500016
0.833335
0.999997
1
1
1
0.999999
0.999999
0.999999
0.999999
0.999998
0.833356
0.50006
0.166777
6.77291e-05
-0.000114876
-7.31099e-05
-3.27568e-05
-7.56336e-06
8.12146e-07
5.38305e-07
2.43298e-07
5.75189e-08
-6.75165e-11
-6.73952e-10
-4.14628e-10
-1.81516e-10
-2.11766e-11
3.65112e-33
-3.9629e-31
-2.99942e-30
-1.13925e-29
-2.76448e-29
-2.36918e-28
-1.78315e-27
-8.20843e-26
-7.17519e-25
1.65391e-24
9.48725e-23
7.28518e-22
5.43863e-21
-5.96005e-20
-2.94795e-18
-6.94111e-18
-7.34967e-18
-2.36929e-17
-1.59139e-16
-2.67903e-15
-3.30178e-14
-2.62313e-13
-1.35693e-12
8.10218e-11
6.76388e-10
3.21297e-09
1.05754e-08
-2.63229e-07
-2.09059e-06
-8.43652e-06
-2.3212e-05
1.42865e-05
0.166709
0.500027
0.833337
0.999996
1
1
0.999999
0.999997
0.999997
0.999998
0.999997
0.999995
0.833375
0.500113
0.166872
0.000127834
-0.000178869
-0.000125154
-5.55611e-05
-1.17419e-05
1.2599e-06
9.37553e-07
4.10634e-07
8.26107e-08
-2.85121e-10
-1.23851e-09
-8.51228e-10
-2.40685e-10
6.22128e-34
-3.94165e-32
-7.36735e-33
-2.68549e-30
-1.41017e-29
-1.18092e-28
-1.04029e-27
-3.95093e-26
-4.91411e-25
-2.87365e-24
7.90803e-24
3.21363e-22
3.74653e-21
1.80388e-20
-1.14056e-18
-4.75471e-18
-1.01792e-17
-2.94065e-17
-1.1713e-16
-5.63842e-16
-1.14206e-14
-1.21868e-13
-8.31873e-13
-3.78603e-12
1.76064e-10
1.44211e-09
6.56133e-09
2.06037e-08
-4.64147e-07
-3.68159e-06
-1.44461e-05
-3.8461e-05
2.22096e-05
0.166734
0.500043
0.833341
0.999996
0.999999
0.999999
0.999997
0.999991
0.999993
0.999994
0.999993
0.999988
0.83341
0.50021
0.167043
0.000237143
-0.000264092
-0.00019961
-8.62471e-05
-1.60525e-05
1.79199e-06
1.39748e-06
5.96442e-07
1.0881e-07
-5.83528e-10
-2.05056e-09
-1.18842e-09
-1.38602e-33
-1.72035e-32
-1.24707e-34
2.43797e-31
-4.96716e-31
5.77008e-30
-3.42447e-28
-1.29634e-26
-2.61219e-25
-4.12545e-24
-2.64518e-24
8.33814e-23
1.83597e-21
1.46025e-20
4.55819e-20
-1.76602e-18
-7.38346e-18
-2.48057e-17
-8.55868e-17
-3.4098e-16
-1.57761e-15
-3.88636e-14
-3.83552e-13
-2.32813e-12
-9.51436e-12
3.62499e-10
2.9271e-09
1.27944e-08
3.84218e-08
-7.88927e-07
-6.26495e-06
-2.39513e-05
-6.18136e-05
3.29461e-05
0.16677
0.500067
0.833351
0.999999
0.999998
0.999997
0.999993
0.999979
0.999982
0.999985
0.999983
0.999972
0.833473
0.500386
0.167348
0.000440012
-0.000370043
-0.000288767
-0.000122828
-2.15674e-05
2.38407e-06
1.86957e-06
7.88296e-07
1.35835e-07
-1.26279e-09
-2.29103e-09
-7.33581e-34
-2.46474e-33
3.72244e-33
1.38004e-31
8.08887e-31
1.15132e-29
1.66283e-28
-3.03186e-27
-1.12898e-25
-2.50563e-24
-1.14485e-23
8.57377e-24
6.27773e-22
7.42304e-21
6.02308e-20
-1.25653e-19
-2.98386e-18
-1.38032e-17
-5.34424e-17
-2.06722e-16
-8.94977e-16
-4.86639e-15
-1.14306e-13
-1.06544e-12
-5.86648e-12
-2.18287e-11
7.09103e-10
5.66998e-09
2.38761e-08
6.87211e-08
-1.30621e-06
-1.03889e-05
-3.90267e-05
-9.61557e-05
4.61644e-05
0.16682
0.500102
0.833375
0.999998
0.999997
0.999994
0.999982
0.99995
0.999958
0.999964
0.99996
0.999934
0.833584
0.500699
0.167886
0.000816444
-0.000496078
-0.000389749
-0.000165205
-2.79722e-05
2.99785e-06
2.34524e-06
9.81926e-07
1.83456e-07
-2.31607e-09
-5.76744e-38
-1.04686e-33
-4.41599e-35
8.53208e-32
7.21588e-31
9.02485e-30
1.37418e-28
2.25605e-27
-3.40822e-26
-1.15329e-24
-8.14206e-24
-3.77544e-23
8.77836e-23
2.83384e-21
3.34719e-20
1.6755e-19
-1.2403e-19
-4.17764e-18
-2.48034e-17
-1.10295e-16
-4.86369e-16
-2.40713e-15
-1.87e-14
-3.44474e-13
-2.70574e-12
-1.35163e-11
-4.61791e-11
1.32125e-09
1.05056e-08
4.2729e-08
1.18118e-07
-2.20438e-06
-1.73101e-05
-6.56732e-05
-0.000143296
6.16371e-05
0.166886
0.500151
0.833401
0.999995
0.999993
0.999985
0.999958
0.999884
0.999903
0.999919
0.999909
0.999853
0.833771
0.501242
0.168827
0.00149504
-0.000646234
-0.000507739
-0.000213204
-3.38257e-05
3.52225e-06
2.74328e-06
1.2851e-06
2.35642e-07
-4.3183e-38
-4.28843e-34
-6.74439e-33
3.08019e-33
4.52322e-31
5.25527e-30
8.41532e-29
1.49075e-27
1.4036e-26
-2.74582e-25
-4.19832e-24
-3.29153e-23
-5.33619e-23
4.05154e-22
1.31192e-20
1.00508e-19
4.16781e-19
2.99026e-19
-3.34253e-18
-3.42727e-17
-2.0409e-16
-9.43559e-16
-3.01718e-15
-7.74204e-15
-7.82191e-13
-6.16181e-12
-2.86466e-11
-9.06605e-11
2.35183e-09
1.86623e-08
7.34923e-08
1.95426e-07
-3.9461e-06
-2.91644e-05
-0.000105386
-0.000204703
7.97587e-05
0.166971
0.500214
0.833434
0.999988
0.999983
0.999964
0.999903
0.999741
0.999784
0.99982
0.999799
0.999683
0.834068
0.502153
0.170425
0.00265426
-0.000814825
-0.000638872
-0.000264336
-3.85274e-05
3.81918e-06
3.09637e-06
1.23715e-06
2.06947e-36
-1.81824e-34
-4.61981e-33
-4.6705e-32
-8.53799e-32
1.85983e-30
3.92746e-29
7.56814e-28
1.68466e-26
-3.70434e-26
-1.70775e-24
-1.77774e-23
-1.87652e-22
-1.09064e-22
2.60811e-21
4.44444e-20
2.55817e-19
8.41541e-19
6.76279e-19
-1.40544e-18
-4.50758e-17
-1.47801e-16
-3.53799e-16
-1.22164e-15
-4.11666e-15