/*--------------------------------*- C++ -*----------------------------------*\
| =========                 |                                                 |
| \\      /  F ield         | OpenFOAM: The Open Source CFD Toolbox           |
|  \\    /   O peration     | Version:  v2106                                 |
|   \\  /    A nd           | Website:  www.openfoam.com                      |
|    \\/     M anipulation  |                                                 |
\*---------------------------------------------------------------------------*/
FoamFile
{
    version     2.0;
    format      ascii;
    arch        "LSB;label=32;scalar=64";
    class       volScalarField;
    location    "0.8";
    object      T;
}
// * * * * * * * * * * * * * * * * * * * * * * * * * * * * * * * * * * * * * //

dimensions      [0 0 0 1 0 0 0];

internalField   nonuniform List<scalar> 
3600
(
1
1
1
1
1
1
0.428571
0.047619
7.14285e-11
2.03308e-32
-4.25625e-34
2.54637e-33
1.94179e-33
3.86748e-34
1.66646e-37
-1.8428e-38
-1.68885e-38
-1.9145e-38
-1.49328e-37
-1.70859e-36
-1.66873e-32
-1.1348e-32
1.58401e-31
1.6024e-30
8.63765e-30
4.10048e-29
9.77988e-29
9.49828e-29
3.51202e-29
-1.06233e-30
-4.50265e-29
-2.31896e-29
-7.30513e-30
-3.43465e-31
1.00054e-31
2.82291e-30
1.66801e-30
4.70851e-31
8.6281e-32
-5.47232e-32
-8.53512e-31
-4.66896e-31
-1.55369e-31
5.68722e-32
1.29353e-31
6.23245e-32
7.60494e-33
-1.37539e-33
-8.43506e-34
-1.63927e-34
7.80876e-36
3.61301e-35
1.47779e-35
1.91581e-36
-6.58926e-37
-4.31589e-37
-8.74125e-38
-6.69758e-42
-4.47045e-45
-1.33578e-44
1
1
1
1
1
1
0.928571
0.496032
0.139881
-4.65946e-16
-1.99696e-16
-3.32942e-17
-5.10041e-22
1.50752e-22
1.50752e-22
9.00551e-23
4.17204e-23
1.52757e-23
1.94972e-24
2.41706e-26
2.09052e-26
-5.34158e-26
-2.12583e-25
-1.56653e-25
-1.03172e-25
-6.4186e-26
-4.09193e-26
-1.20088e-26
1.82523e-28
1.3095e-28
4.63003e-29
-3.70692e-28
-3.42593e-28
-2.46755e-28
-1.51767e-28
-5.7935e-29
3.40587e-29
6.5765e-29
4.00977e-29
1.87647e-29
6.76024e-30
-4.35572e-30
-4.5949e-30
-2.42237e-30
-1.12177e-30
4.51741e-31
4.51225e-31
1.89854e-31
-2.70378e-33
-8.64755e-33
-4.87734e-33
-1.20526e-33
1.75101e-34
9.6161e-35
3.49346e-35
-5.16178e-37
-3.26166e-36
-1.75464e-36
-4.46107e-37
-1.60357e-38
1
1
1
1
1
1
1
0.860119
0.5
0.15997
-4.79911e-10
-2.87612e-10
-1.19434e-10
-1.58952e-11
-5.46134e-20
3.98365e-21
3.93523e-21
2.32331e-21
1.04705e-21
3.62155e-22
1.09949e-23
1.68648e-24
-2.04031e-25
-7.69303e-24
-5.4748e-24
-2.83918e-24
-1.00641e-24
-3.30288e-25
1.49218e-25
1.24733e-25
3.19509e-26
8.73623e-27
-5.88894e-27
-5.81355e-27
-3.1256e-27
-1.78602e-27
-7.47915e-28
-7.24037e-29
7.91939e-28
5.61396e-28
3.04882e-28
1.14119e-28
-1.94051e-29
-6.07095e-29
-2.66884e-29
-1.13746e-29
5.39778e-31
1.16459e-30
5.81416e-31
5.8685e-32
-3.1323e-32
-1.66758e-32
-5.02689e-33
6.51022e-34
4.34133e-34
1.78506e-34
1.7797e-35
-1.56097e-35
-8.83786e-36
-2.20281e-36
1
1
1
1
1
1
1
1
0.84003
0.5
0.164993
7.77555e-11
-1.52789e-10
-9.02308e-11
-3.2673e-11
-1.6177e-12
-1.75903e-19
2.21038e-20
2.66311e-20
2.58912e-20
2.44455e-20
1.43454e-20
2.69188e-21
3.00761e-23
-7.06618e-23
-9.95294e-23
-9.77382e-23
-7.06107e-23
-2.71329e-23
2.56041e-24
1.52646e-24
1.99169e-25
8.4373e-26
-2.1475e-26
-7.3562e-26
-3.90282e-26
-1.90385e-26
-7.72991e-27
-1.14064e-27
4.68565e-27
3.75711e-27
2.22186e-27
9.80243e-28
9.50873e-29
-3.52521e-28
-1.69229e-28
-6.55284e-29
4.39488e-30
4.00495e-30
1.83914e-30
2.25024e-31
-5.91949e-32
-3.61582e-32
-1.26753e-32
1.08035e-33
1.27399e-33
6.87354e-34
1.15687e-34
-6.29518e-35
-2.9645e-35
1
1
1
1
1
1
1
1
1
0.835007
0.5
0.166248
-1.66257e-10
-1.38313e-10
-7.66352e-11
-2.52076e-11
-1.34405e-18
1.44058e-20
-1.51479e-20
-3.03625e-20
-4.08319e-21
2.49913e-20
1.41618e-20
3.94046e-21
1.82251e-22
1.00146e-22
1.05602e-23
-1.29067e-22
-1.15258e-22
-4.55955e-23
3.16244e-24
2.37065e-24
1.4386e-24
5.17428e-25
3.39867e-27
-3.37307e-25
-2.25453e-25
-1.28572e-25
-6.58443e-26
-2.50134e-26
2.40392e-26
2.40249e-26
1.4967e-26
7.17886e-27
6.82211e-28
-2.0801e-27
-1.09018e-27
-3.69387e-28
2.37154e-29
1.42158e-29
5.77708e-30
6.85982e-31
-7.17553e-32
-4.91139e-32
-1.75752e-32
2.1776e-33
2.72259e-33
1.67349e-33
4.2415e-34
-1.45588e-34
1
1
1
1
1
1
1
1
1
1
0.833752
0.5
0.166562
-6.85898e-10
-4.67126e-10
-2.13802e-10
-4.36122e-11
-5.74908e-18
6.56659e-19
3.67982e-19
1.58084e-19
1.00638e-19
6.31414e-20
2.68612e-20
7.9732e-21
5.44053e-21
3.94061e-21
1.9712e-21
7.02289e-23
-3.77468e-24
1.17022e-23
1.45756e-23
1.19629e-23
6.26382e-24
1.09622e-24
-4.54775e-26
-1.02008e-24
-1.01409e-24
-7.46875e-25
-4.56796e-25
-2.06708e-25
8.60388e-26
1.66829e-25
9.48572e-26
3.91216e-26
6.90695e-28
-8.10449e-27
-4.21515e-27
-1.05786e-27
1.04952e-28
6.23652e-29
2.51792e-29
8.67147e-31
-6.52321e-31
-4.25283e-31
-1.33058e-31
2.82328e-32
1.69648e-32
6.88248e-33
2.73587e-34
0.428571
0.928571
1
1
1
1
1
1
1
1
1
0.833438
0.5
0.166641
-1.32507e-10
-3.02597e-10
-1.87663e-10
-7.32681e-11
-8.03801e-12
5.44422e-18
3.21933e-18
1.51383e-18
5.83408e-19
2.19936e-19
7.10057e-21
3.47318e-21
3.10677e-21
1.90503e-21
1.23749e-22
1.8592e-22
1.63614e-22
1.33397e-22
9.22056e-23
5.26466e-23
1.87956e-23
4.92196e-24
1.95542e-24
-1.6113e-24
-2.96289e-24
-2.58632e-24
-1.76518e-24
-7.44733e-25
4.67399e-26
6.4472e-25
3.9765e-25
1.62081e-25
-3.64347e-28
-2.35338e-26
-1.29995e-26
-2.82295e-27
4.99261e-28
3.29171e-28
1.20287e-28
-7.9037e-30
-5.28486e-30
-2.33167e-30
-4.39593e-31
1.64068e-31
9.25409e-32
1.90371e-32
0.047619
0.496032
0.860119
1
1
1
1
1
1
1
1
1
0.833359
0.5
0.16666
-3.02597e-10
-2.6314e-10
-1.55054e-10
-5.78897e-11
-4.64407e-12
1.85154e-17
1.11805e-17
5.3419e-18
2.07092e-18
5.16944e-19
-4.18488e-20
-2.39738e-20
-1.05545e-20
-3.04261e-21
-9.31603e-22
2.29724e-21
1.77902e-21
1.07815e-21
5.50666e-22
2.20428e-22
9.35358e-23
4.62914e-23
1.82219e-23
-1.80885e-23
-1.60792e-23
-1.11484e-23
-6.54542e-24
-2.73494e-24
-3.88998e-26
1.21571e-24
9.5539e-25
4.01698e-25
-2.62994e-26
-6.26546e-26
-3.6025e-26
-5.55836e-27
7.6641e-28
5.06228e-28
1.75222e-28
-1.83629e-29
-1.54171e-29
-7.88406e-30
-1.43811e-30
4.57823e-31
2.0055e-31
7.14285e-11
0.139881
0.5
0.84003
1
1
1
1
1
1
1
1
1
0.83334
0.5
0.166665
-8.3837e-10
-6.15921e-10
-3.02387e-10
-7.97603e-11
-3.39984e-15
3.91674e-17
3.35419e-17
2.02133e-17
8.36384e-18
1.84903e-18
-2.41962e-19
-1.45463e-19
-6.90973e-20
-2.50016e-20
-4.10808e-21
9.86681e-21
1.09587e-20
9.44233e-21
7.00411e-21
3.50884e-21
1.53085e-21
6.33202e-22
1.56012e-22
-1.90637e-22
-1.24801e-22
-6.45438e-23
-2.82195e-23
-8.89869e-24
3.41278e-24
3.72059e-24
2.72507e-24
1.12745e-24
-2.54485e-25
-2.56863e-25
-1.18841e-25
-7.25417e-28
1.40242e-27
9.69373e-28
2.26589e-28
-6.73016e-29
-4.41818e-29
-1.97471e-29
-2.73683e-30
8.46496e-31
9.71252e-17
-2.94761e-16
0.15997
0.5
0.835007
1
1
1
1
1
1
1
1
1
0.833335
0.5
0.166666
-3.09403e-10
-4.20797e-10
-2.88544e-10
-1.15755e-10
-1.45281e-11
3.97236e-17
4.19065e-17
3.5146e-17
1.8736e-17
5.12827e-18
-1.0323e-18
-7.62776e-19
-5.65909e-19
-2.90176e-19
-1.08375e-19
9.61672e-21
9.86942e-21
8.94252e-21
1.12918e-20
1.82528e-20
1.15803e-20
5.24101e-21
1.27783e-21
-1.3069e-21
-8.21995e-22
-3.83531e-22
-1.22514e-22
-1.24871e-23
1.16562e-23
1.03239e-23
6.38615e-24
2.52416e-24
-9.03921e-25
-8.41874e-25
-3.45772e-25
4.24374e-27
3.61046e-27
1.70249e-27
3.34957e-28
-1.3567e-28
-1.09067e-28
-5.90842e-29
-9.13068e-30
2.24374e-18
-1.25326e-16
-4.79911e-10
0.164993
0.5
0.833752
1
1
1
1
1
1
1
1
1
0.833334
0.5
0.166667
-4.20627e-10
-3.76219e-10
-2.30672e-10
-8.92838e-11
-8.65164e-12
-1.27564e-16
4.11409e-17
3.3684e-17
1.69772e-17
2.79865e-18
-1.59e-18
-1.46364e-18
-1.44716e-18
-1.05469e-18
-4.83446e-19
-1.67212e-19
-7.05031e-20
-2.31758e-20
1.55904e-21
5.1037e-20
3.85655e-20
1.9309e-20
5.80209e-21
-4.30137e-21
-3.16071e-21
-1.55814e-21
-4.68814e-22
6.24849e-23
4.66978e-23
2.91502e-23
1.49966e-23
4.82136e-24
-1.77346e-24
-1.21783e-24
-4.23154e-25
1.79903e-26
1.25853e-26
5.40937e-27
-3.35458e-28
-4.45921e-28
-3.18923e-28
-7.65892e-29
6.66271e-20
-1.96181e-17
-2.87944e-10
8.55678e-11
0.166248
0.5
0.833438
1
1
1
1
1
1
1
1
1
0.833333
0.5
0.166667
-9.22924e-10
-7.08731e-10
-3.48584e-10
-8.82406e-11
-4.21128e-12
1.71871e-16
1.18202e-16
6.54063e-17
2.63901e-17
2.16684e-18
6.69109e-19
-2.24487e-19
-1.9212e-18
-1.8094e-18
-1.51306e-18
-1.05131e-18
-6.7071e-19
-3.73529e-19
-1.25029e-19
1.41223e-19
1.13777e-19
6.21252e-20
2.08088e-20
-1.86122e-20
-1.34751e-20
-6.36055e-21
-1.26075e-21
4.75487e-22
2.77412e-22
1.23756e-22
4.29508e-23
-2.70525e-24
-3.20397e-24
-1.83906e-24
-4.77274e-25
1.49708e-25
8.25834e-26
3.14281e-26
-3.83952e-27
-2.63182e-27
-6.85131e-28
1.81604e-24
-5.55926e-24
-1.1298e-10
-1.66435e-10
-1.66545e-10
0.166562
0.5
0.833359
1
1
1
1
1
1
1
1
1
0.833333
0.5
0.166667
-6.23431e-11
-6.25866e-10
-3.66135e-10
-1.37338e-10
-2.17674e-11
1.7281e-15
1.05046e-15
4.9527e-16
1.64595e-16
4.07121e-17
1.81824e-17
3.99331e-18
-8.06994e-18
-8.61297e-18
-7.70706e-18
-5.76707e-18
-3.83367e-18
-2.10727e-18
-6.95058e-19
5.11978e-19
3.76265e-19
1.89367e-19
5.18052e-20
-4.89133e-20
-3.57154e-20
-1.62179e-20
-2.95715e-21
1.67861e-21
7.53115e-22
3.42539e-22
7.16983e-23
-1.38509e-23
-8.56341e-24
-3.67842e-24
-5.69183e-25
3.25053e-25
8.22154e-26
3.77575e-26
-6.00043e-27
-3.68399e-27
3.90625e-26
-6.61424e-24
-1.27341e-11
-9.38343e-11
-1.40333e-10
-6.865e-10
0.166641
0.5
0.83334
1
1
1
1
1
1
1
1
1
0.833333
0.5
0.166667
1.12561e-10
-1.175e-09
-7.18479e-10
-3.09558e-10
-7.92018e-11
1.36901e-14
8.26729e-15
3.83037e-15
1.30042e-15
2.47142e-16
9.12096e-17
-5.48847e-17
-5.62723e-17
-5.06084e-17
-3.98604e-17
-2.87232e-17
-1.80385e-17
-8.91572e-18
-1.18771e-18
1.03482e-18
8.47799e-19
4.57104e-19
7.28049e-20
-8.86665e-20
-7.31183e-20
-3.44403e-20
-5.05746e-21
6.4021e-21
2.85134e-21
1.02913e-21
7.34283e-23
-2.59692e-23
-1.7553e-23
-7.4842e-24
-1.49182e-24
1.85805e-24
6.70213e-25
1.68763e-25
-1.42042e-26
-6.69366e-26
-9.5484e-24
-2.43853e-17
-3.27695e-11
-7.78179e-11
-4.68259e-10
-1.33497e-10
0.16666
0.5
0.833335
1
1
1
1
1
1
1
1
1
0.833333
0.5
0.166667
3.93986e-10
-2.89025e-09
-1.77922e-09
-8.01614e-10
-2.20868e-10
8.20356e-14
4.93671e-14
2.26141e-14
7.08847e-15
1.21858e-15
3.61421e-16
-2.81869e-16
-2.62786e-16
-2.20614e-16
-1.71727e-16
-1.2007e-16
-7.11827e-17
-2.97341e-17
6.35091e-18
4.94533e-18
3.30267e-18
1.27291e-18
-2.83636e-19
-2.50051e-19
-1.85534e-19
-8.03618e-20
-5.27259e-21
6.77774e-21
4.54547e-21
1.34575e-21
9.29468e-23
-3.9754e-23
-4.44514e-23
-2.53272e-23
-3.54491e-24
1.39962e-24
8.09005e-25
7.58314e-26
-8.71203e-26
-6.74719e-23
7.60782e-18
-1.11587e-12
-2.4952e-11
-2.13969e-10
-3.0305e-10
-3.03049e-10
0.166665
0.5
0.833334
1
1
1
1
1
1
1
1
1
0.833333
0.5
0.166667
3.09714e-09
-7.38573e-09
-4.55204e-09
-2.06492e-09
-5.69017e-10
3.26491e-13
1.98208e-13
9.0616e-14
2.68357e-14
5.5524e-15
1.6493e-15
-1.07351e-15
-1.00494e-15
-8.53548e-16
-6.44704e-16
-4.30528e-16
-2.30608e-16
-7.23746e-17
3.55169e-17
2.023e-17
9.78459e-18
3.47225e-18
-5.46678e-19
-6.25297e-19
-4.20488e-19
-1.74333e-19
2.5906e-20
2.9524e-20
1.51529e-20
2.06594e-21
-2.77901e-22
-5.17329e-23
-4.03053e-23
-2.43118e-23
3.83968e-24
4.34289e-24
1.13138e-24
-1.00513e-25
-3.92558e-22
4.53095e-18
1.53038e-17
6.56272e-17
-4.33953e-11
-1.87665e-10
-2.6333e-10
-8.3373e-10
0.166666
0.5
0.833333
1
1
1
1
1
1
1
1
1
0.833333
0.5
0.166667
7.44313e-09
-1.81967e-08
-1.12281e-08
-5.08546e-09
-1.3676e-09
1.0424e-12
6.39207e-13
2.93331e-13
8.86295e-14
2.16415e-14
5.88883e-15
-5.00407e-15
-4.33779e-15
-3.24305e-15
-2.21717e-15
-1.31955e-15
-5.783e-16
-2.98747e-17
6.09773e-17
4.91821e-17
2.76307e-17
9.60361e-18
-3.49798e-18
-2.49026e-18
-1.29224e-18
-3.90705e-19
7.07075e-20
5.35938e-20
2.37148e-20
5.31794e-21
-2.1566e-21
-1.25281e-21
-2.57513e-22
-4.06826e-23
9.20601e-24
4.34406e-24
-1.46079e-25
-1.73944e-21
2.14349e-18
1.18704e-17
1.63159e-16
-9.04941e-16
-7.31889e-11
-1.5486e-10
-6.0986e-10
-2.49656e-10
0.166667
0.5
0.833333
1
1
1
1
1
1
1
1
1
0.833333
0.5
0.166667
1.78268e-08
-4.23973e-08
-2.61969e-08
-1.18102e-08
-3.072e-09
3.1057e-12
1.91249e-12
8.83624e-13
2.82969e-13
6.71697e-14
1.37826e-14
-2.29511e-14
-1.81696e-14
-1.20487e-14
-7.09574e-15
-3.57322e-15
-1.09184e-15
3.98823e-16
2.89767e-16
1.70312e-16
7.71248e-17
7.71999e-18
-7.6641e-18
-6.17332e-18
-3.16528e-18
-5.92696e-19
6.80954e-20
5.04019e-20
2.46944e-20
5.24887e-21
-1.78741e-21
-1.40031e-21
-6.54502e-22
-6.27273e-23
1.65473e-23
-3.56187e-25
-5.66069e-21
8.08106e-19
7.21179e-18
1.00473e-16
8.56068e-16
-7.98331e-12
-5.76633e-11
-2.98659e-10
-4.22533e-10
-1.91184e-10
0.166667
0.5
0.833333
1
1
1
1
1
1
1
1
1
0.833333
0.5
0.166667
3.95942e-08
-9.31441e-08
-5.76306e-08
-2.58262e-08
-6.47502e-09
8.94211e-12
5.51312e-12
2.56383e-12
7.98117e-13
2.4157e-13
-1.9752e-14
-4.62669e-14
-4.1133e-14
-2.84265e-14
-1.67614e-14
-8.14509e-15
-2.04695e-15
1.20517e-15
8.21624e-16
4.46899e-16
1.58207e-16
-3.0024e-17
-2.66018e-17
-1.62918e-17
-6.66236e-18
3.29201e-19
2.17004e-19
1.00789e-19
2.56049e-20
-8.23782e-21
-6.26553e-21
-4.75884e-21
-2.10959e-21
-8.33518e-23
-3.47367e-25
-2.90064e-20
2.21455e-19
3.79963e-18
4.99853e-17
8.11103e-16
-2.58969e-16
-4.50436e-12
-7.76666e-11
-2.5899e-10
-5.21776e-10
-8.94015e-11
0.166667
0.5
0.833333
1
1
1
1
1
1
1
1
1
0.833333
0.5
0.166667
7.8409e-08
-1.93312e-07
-1.19756e-07
-5.33092e-08
-1.28618e-08
2.4278e-11
1.50002e-11
6.94806e-12
2.44133e-12
2.88165e-13
-1.62859e-13
-1.52981e-13
-1.23241e-13
-7.15728e-14
-3.79054e-14
-1.74621e-14
-3.97837e-15
2.48714e-15
1.96067e-15
9.69643e-16
2.16949e-16
-1.07971e-16
-7.92997e-17
-3.63588e-17
-7.18774e-18
1.44264e-18
1.17593e-18
4.23429e-19
2.91561e-20
-2.62349e-20
-2.19592e-20
-1.28305e-20
-2.09575e-21
-2.37698e-25
-2.68979e-20
-5.44799e-20
1.64987e-18
2.10838e-17
4.4389e-16
2.24946e-15
-1.1531e-14
-1.92025e-13
-8.82775e-11
-3.24086e-10
-1.12693e-09
2.41547e-09
0.166667
0.5
0.833333
1
1
1
1
1
1
1
1
1
0.833333
0.5
0.166667
1.42626e-07
-3.80324e-07
-2.35883e-07
-1.04271e-07
-2.42075e-08
6.14949e-11
3.81111e-11
1.79038e-11
6.02513e-12
7.82065e-15
-1.82649e-13
-2.47559e-13
-2.25497e-13
-1.6172e-13
-9.88414e-14
-4.27418e-14
-8.45423e-15
4.39074e-15
3.32988e-15
1.38715e-15
1.80109e-16
-1.59274e-16
-1.22525e-16
-5.23497e-17
-6.16973e-18
1.1625e-18
8.78803e-19
3.62171e-19
7.63222e-20
-2.993e-20
-2.57356e-20
-8.29674e-21
-1.28938e-25
-1.42657e-20
-2.75296e-19
4.02369e-19
7.8848e-18
1.82168e-16
1.35206e-15
5.80832e-15
-6.17466e-14
-2.67544e-12
-1.24672e-10
-6.92485e-10
-3.38365e-09
5.62972e-09
0.166667
0.5
0.833333
1
1
1
1
1
1
1
1
1
0.833333
0.5
0.166667
2.28538e-07
-7.12777e-07
-4.42591e-07
-1.9432e-07
-4.35255e-08
1.49729e-10
9.33837e-11
4.40197e-11
1.37469e-11
-1.16537e-13
-2.35333e-13
-2.54569e-13
-2.50453e-13
-2.15375e-13
-1.65057e-13
-8.3232e-14
-1.90968e-14
5.89538e-15
4.83757e-15
2.33949e-15
3.23768e-16
-1.69249e-16
-1.32144e-16
-5.37638e-17
-2.43632e-19
1.20885e-18
1.15506e-18
6.1652e-19
9.92678e-20
-2.5569e-20
-1.57837e-20
-6.60533e-26
-6.03612e-21
-1.83016e-19
-4.36612e-19
2.04693e-18
4.63306e-17
5.9057e-16
3.61487e-15
2.08016e-14
-1.60436e-13
-1.92699e-11
-3.00438e-10
-2.07423e-09
-1.06446e-08
1.4549e-08
0.166667
0.5
0.833333
1
1
1
1
1
1
1
1
1
0.833333
0.5
0.166667
3.19466e-07
-1.28182e-06
-7.96938e-07
-3.47878e-07
-7.57359e-08
3.78413e-10
2.36517e-10
1.11094e-10
3.41856e-11
5.40695e-14
-1.19425e-13
-2.01526e-13
-2.00659e-13
-1.76373e-13
-1.19763e-13
-5.74639e-14
4.38323e-15
6.16281e-15
5.35792e-15
1.63475e-15
-4.62048e-16
-4.13358e-16
-2.13739e-16
-6.09994e-18
4.18119e-18
5.05877e-18
3.13188e-18
1.03786e-18
-2.43222e-20
-1.92296e-20
8.71916e-25
-1.21082e-21
-8.34925e-20
-3.71407e-19
-8.99071e-19
-2.72419e-18
1.43858e-16
1.627e-15
1.39872e-14
3.1251e-14
2.40687e-13
-8.19104e-11
-9.46243e-10
-6.53195e-09
-3.1888e-08
4.29266e-08
0.166667
0.5
0.833333
1
1
1
1
1
1
1
1
1
0.833334
0.500001
0.166668
4.14476e-07
-2.23663e-06
-1.3925e-06
-6.05612e-07
-1.29874e-07
1.0703e-09
6.65255e-10
3.10821e-10
9.68276e-11
8.05634e-13
2.5151e-13
9.13697e-17
-7.90241e-14
-4.79809e-14
-2.00385e-14
2.59261e-14
1.64845e-14
1.24291e-15
-2.79738e-15
-2.96012e-15
-2.12687e-15
-9.39462e-16
-4.88591e-17
2.41326e-17
2.21192e-17
1.5368e-17
7.07547e-18
-4.47054e-19
-1.32958e-19
8.14761e-24
-1.90855e-22
-2.04851e-20
-2.042e-19
-9.88689e-19
-2.3546e-18
-6.32672e-18
4.55569e-16
6.71827e-15
2.58119e-14
1.61207e-13
1.30512e-12
-2.90296e-10
-3.00918e-09
-1.95986e-08
-8.93302e-08
1.11037e-07
0.166667
0.5
0.833333
1
1
1
1
1
1
1
1
1
0.833334
0.500002
0.166669
7.5537e-07
-3.84562e-06
-2.39735e-06
-1.04186e-06
-2.23918e-07
3.32904e-09
2.05414e-09
9.53979e-10
2.96681e-10
2.28195e-12
1.05707e-12
5.61941e-13
3.43164e-13
2.52787e-13
2.00172e-13
1.16147e-13
-3.15297e-14
-3.87311e-14
-2.94966e-14
-1.57264e-14
-4.81138e-15
-7.00996e-17
1.3657e-16
1.17775e-16
7.40375e-17
3.55155e-17
3.91921e-18
-3.29302e-19
2.19069e-23
-4.07294e-23
1.03685e-22
-6.48951e-20
-6.15868e-19
-1.82557e-18
-6.20956e-18
-2.87333e-18
2.35757e-15
1.61233e-14
9.51836e-14
8.21752e-13
6.2991e-12
-9.24349e-10
-9.02239e-09
-5.49941e-08
-2.33831e-07
2.67616e-07
0.166667
0.5
0.833333
1
1
1
1
1
1
1
1
1
0.833335
0.500005
0.166671
1.81925e-06
-6.63005e-06
-4.13629e-06
-1.80143e-06
-3.93717e-07
1.04112e-08
6.39932e-09
2.95372e-09
8.95051e-10
4.59136e-12
2.85979e-12
1.9951e-12
1.52656e-12
1.15753e-12
7.52943e-13
2.90053e-13
-1.63447e-13
-1.55844e-13
-9.75544e-14
-4.07067e-14
2.50738e-17
-4.68776e-16
1.44915e-16
2.7979e-16
1.53109e-16
1.84793e-17
-1.83754e-19
2.0179e-23
2.78978e-23
8.25914e-23
9.47464e-22
-1.90046e-19
-9.60638e-19
-4.25624e-18
-9.90904e-18
3.93699e-16
8.62569e-15
5.43229e-14
4.30311e-13
3.8911e-12
2.62267e-11
-2.70942e-09
-2.5236e-08
-1.4419e-07
-5.73451e-07
6.03005e-07
0.166668
0.500001
0.833333
1
1
1
1
1
1
1
1
1
0.833339
0.500012
0.166676
4.54934e-06
-1.16142e-05
-7.24495e-06
-3.16677e-06
-7.06998e-07
3.04837e-08
1.87266e-08
8.58595e-09
2.4919e-09
8.1051e-12
7.00274e-12
6.53682e-12
5.4013e-12
3.89042e-12
2.25613e-12
7.19608e-13
-6.07904e-13
-4.92642e-13
-2.69794e-13
-6.25289e-14
1.14394e-14
3.67507e-15
1.70262e-15
7.5912e-16
1.59217e-16
-2.24943e-18
8.4786e-24
2.04747e-23
5.49569e-23
5.78235e-22
3.77285e-21
-2.72147e-19
-1.97481e-18
-7.52006e-18
-1.23528e-17
3.94677e-15
3.05751e-14
2.07467e-13
1.91501e-12
1.61017e-11
9.51731e-11
-7.36158e-09
-6.58904e-08
-3.54174e-07
-1.32183e-06
1.27255e-06
0.16667
0.500002
0.833333
0.999999
1
1
1
1
1
1
1
0.999999
0.833346
0.500028
0.166688
1.07111e-05
-2.07171e-05
-1.29129e-05
-5.66162e-06
-1.28096e-06
8.10471e-08
4.98479e-08
2.26754e-08
6.2363e-09
1.90577e-11
2.13109e-11
3.25109e-11
2.93223e-11
2.22369e-11
1.08392e-11
2.45975e-12
-1.73166e-12
-1.21266e-12
-4.7479e-13
-2.53176e-14
7.04797e-15
4.81205e-15
2.62472e-15
9.41867e-16
-2.39375e-17
2.50089e-26
5.48228e-24
2.59953e-23
2.73858e-22
2.28657e-21
1.10242e-20
-5.56035e-19
-3.49804e-18
-1.10867e-17
1.13108e-15
1.49944e-14
9.49101e-14
7.94324e-13
7.68632e-12
5.83861e-11
3.07058e-10
-1.86131e-08
-1.61055e-07
-8.17587e-07
-2.87273e-06
2.53236e-06
0.166673
0.500004
0.833333
0.999999
1
1
1
0.999999
0.999999
0.999999
0.999999
0.999998
0.833362
0.500064
0.166714
2.29743e-05
-3.72483e-05
-2.31949e-05
-1.01786e-05
-2.29839e-06
1.94299e-07
1.19721e-07
5.39537e-08
1.40177e-08
4.08157e-11
4.49519e-11
5.37824e-11
6.24195e-11
5.64599e-11
3.19804e-11
1.0965e-11
-2.41779e-12
-1.99714e-12
-7.69154e-13
7.56852e-15
1.8209e-14
1.12858e-14
5.07617e-15
7.65485e-16
-6.25922e-26
1.30803e-25
4.09237e-24
9.50754e-23
1.05667e-21
6.62396e-21
2.14235e-20
-1.20437e-18
-6.02086e-18
-5.82425e-17
4.02229e-15
3.28097e-14
2.25254e-13
2.86427e-12
2.74451e-11
1.88583e-10
8.94834e-10
-4.39517e-08
-3.69721e-07
-1.77924e-06
-5.90403e-06
4.76079e-06
0.166679
0.500008
0.833334
0.999999
1
1
0.999999
0.999997
0.999997
0.999998
0.999997
0.999995
0.833397
0.500138
0.166765
4.76353e-05
-6.63742e-05
-4.13067e-05
-1.80974e-05
-4.03853e-06
4.20836e-07
2.59807e-07
1.15945e-07
2.85611e-08
2.44933e-10
-2.24991e-11
1.83411e-11
5.28687e-11
4.99881e-11
3.08362e-11
6.70299e-12
-1.9116e-12
-1.45689e-12
-4.87839e-13
-6.26345e-16
1.51183e-14
1.46786e-14
4.49437e-15
-2.56992e-26
-2.72127e-25
1.05145e-24
1.32e-25
3.24948e-22
3.07867e-21
1.96174e-20
-3.25085e-20
-2.13852e-18
-3.48807e-17
-4.55634e-16
6.77606e-15
4.91007e-14
3.61039e-13
8.88066e-12
8.73117e-11
5.50261e-10
2.38285e-09
-9.72547e-08
-7.99607e-07
-3.66107e-06
-1.15079e-05
8.4533e-06
0.16669
0.500015
0.833337
1
1
0.999999
0.999997
0.999991
0.999992
0.999993
0.999992
0.999986
0.833464
0.500275
0.166885
0.000134231
-0.000115316
-7.17711e-05
-3.159e-05
-7.22976e-06
8.26881e-07
5.11591e-07
2.28698e-07
5.70973e-08
4.38409e-10
-3.28836e-10
-1.57236e-10
-3.0132e-11
1.82896e-11
6.28516e-12
-2.22445e-12
-2.38499e-12
-1.74493e-12
-6.21523e-13
2.47709e-14
2.41031e-14
1.59951e-14
-3.54998e-27
-2.45878e-25
2.32764e-25
-1.92306e-25
-2.26512e-23
7.12413e-22
1.01165e-20
3.06484e-20
-5.65022e-20
-1.5308e-17
-2.72549e-16
-2.16724e-15
1.25992e-14
1.34938e-13
1.06724e-12
2.63607e-11
2.5252e-10
1.46795e-09
5.85289e-09
-2.02294e-07
-1.63409e-06
-7.14344e-06
-2.13358e-05
1.414e-05
0.166707
0.500028
0.833348
0.999999
0.999999
0.999997
0.999992
0.999974
0.999978
0.999982
0.999979
0.999963
0.833577
0.500503
0.167202
0.000386212
-0.000192982
-0.00012171
-5.51654e-05
-1.34205e-05
1.4794e-06
9.60252e-07
4.41045e-07
1.09913e-07
7.33407e-10
-1.07892e-09
-6.19656e-10
-2.46546e-10
-6.1201e-11
-3.81903e-12
-3.96036e-12
-3.55097e-12
-2.15752e-12
-8.4126e-13
-2.06566e-14
1.33751e-14
-2.35802e-28
-1.5053e-25
-2.62845e-25
-5.57086e-25
-1.51766e-23
-1.46452e-22
1.61928e-21
2.53921e-20
1.43927e-20
-4.02595e-18
-1.23517e-16
-1.31474e-15
-6.22885e-15
2.12304e-14
3.52231e-13
4.25752e-12
8.00401e-11
6.75916e-10
3.61657e-09
1.3362e-08
-3.96735e-07
-3.16484e-06
-1.32557e-05
-3.77408e-05
2.18142e-05
0.166731
0.500049
0.833364
0.999998
0.999997
0.999993
0.999978
0.999933
0.999944
0.999952
0.999946
0.999907
0.833745
0.500889
0.167885
0.000928255
-0.000307716
-0.000217433
-9.70324e-05
-2.07055e-05
2.38694e-06
1.78174e-06
7.84199e-07
1.61622e-07
1.48745e-09
-2.52343e-09
-1.52144e-09
-6.76084e-10
-1.96557e-10
-5.95754e-12
-4.668e-12
-3.66006e-12
-2.06061e-12
-5.32189e-13
1.46221e-14
3.15294e-28
-5.35415e-26
-1.95276e-25
-5.63564e-25
-7.85566e-24
-1.30338e-22
-3.42326e-22
8.52907e-21
8.48977e-20
-1.14204e-18
-3.74579e-17
-6.06839e-16
-4.21686e-15
-9.94793e-15
-2.43058e-14
-4.85633e-13
4.52387e-12
1.99306e-10
1.65281e-09
8.2716e-09
2.85213e-08
-7.35993e-07
-5.82709e-06
-2.34669e-05
-6.39028e-05
3.00703e-05
0.166764
0.500091
0.833399
0.999995
0.999992
0.999981
0.999944
0.999834
0.99986
0.999883
0.999867
0.999779
0.833989
0.501592
0.169191
0.00193711
-0.000453761
-0.000348067
-0.000150189
-2.7707e-05
3.38219e-06
2.64056e-06
1.13043e-06
2.23815e-07
3.86041e-09
-4.68905e-09
-3.40336e-09
-1.56307e-09
-4.1447e-10
-1.33393e-11
-1.85802e-12
-2.27323e-12
-1.43039e-12
-1.2697e-13
1.34086e-28
2.95352e-27
-7.29275e-26
-3.57372e-25
-3.27466e-24
-7.00919e-23
-1.0705e-21
2.34517e-22
6.34504e-20
6.28283e-19
-9.95487e-18
-2.1942e-16
-2.19039e-15
-8.41586e-15
-2.34881e-14
-3.03075e-13
-2.82473e-12
8.65095e-12
4.72849e-10
3.7595e-09
1.76849e-08
5.72001e-08
-1.29838e-06
-1.0242e-05
-3.97792e-05
-0.000103898
3.5831e-05
0.16681
0.50017
0.833459
0.999986
0.999979
0.999952
0.99986
0.999606
0.99967
0.999724
0.999688
0.999493
0.834381
0.502882
0.171509
0.00369041
-0.000627283
-0.00049129
-0.00020919
-3.61598e-05
4.38881e-06
3.43664e-06
1.48654e-06
3.81944e-07
1.27372e-08
-6.71051e-09
-5.19352e-09
-2.7255e-09
-9.89036e-10
-3.98961e-11
-5.8018e-12
-3.41045e-12
-7.632e-13
1.79453e-29
2.84995e-27
-1.39782e-27
-1.257e-25
-7.96062e-25
-2.97965e-23
-6.79716e-22
-3.609e-21
3.4856e-20
6.03798e-19
1.16641e-18
-3.58252e-17
-9.27368e-16
-5.45393e-15
-2.01825e-14
-1.61574e-13
-1.72303e-12
-1.04868e-11
8.68445e-13
1.04371e-09
7.99943e-09
3.55316e-08
1.08267e-07
-2.21615e-06
-1.73989e-05
-6.66413e-05
-0.000161451
3.64984e-05
0.166878
0.500288
0.833546
0.999963
0.999946
0.999883
0.99967
0.999102
0.99925
0.999374
0.999299
0.998887
0.834982
0.505011
0.175371
0.00654779
-0.000826946
-0.000649546
-0.000273515
-4.35903e-05
5.19308e-06
4.19317e-06
2.19713e-06
7.59077e-07
5.38723e-08
-7.92672e-09
-6.87817e-09
-4.19065e-09
-1.54491e-09
-1.69234e-11
-2.98292e-12
-1.30245e-12
5.00807e-30
1.20932e-27
2.20701e-26
-5.35129e-27
-3.20884e-25
-8.66067e-24
-3.50556e-22
-6.87752e-21
1.45743e-20
3.59687e-19
6.10394e-18
-6.1737e-18
-3.21014e-16
-3.09882e-15
-1.47222e-14
-8.21492e-14
-8.3147e-13
-6.92082e-12
-1.58107e-11
-5.30534e-11
2.05262e-09
1.58986e-08
6.73144e-08
1.94137e-07
-3.85947e-06
-2.992e-05
-0.000113466
-0.000237818
4.32879e-05
0.167002
0.500459
0.833662
0.999907
0.999867
0.999724
0.99925
0.998035
0.998364
0.99864
0.998485
0.997649
0.835716
0.508178
0.181299
0.0107939
-0.00104518
-0.000818803
-0.000338085
-4.98631e-05
5.46605e-06
4.73989e-06
2.95311e-06
1.1218e-06
1.45698e-07
-7.35453e-09
-6.58326e-09
-3.99213e-09
-1.09112e-09
2.10326e-12
6.41533e-13
-1.58633e-29
4.25255e-28
1.3352e-26
2.01946e-25
-5.07731e-27
-5.17671e-24
-1.64132e-22
-4.62042e-21
-2.20002e-20
1.44705e-19
3.76588e-18
2.14648e-17
-8.25502e-17
-1.53763e-15
-9.74239e-15
-4.56408e-14
-3.20556e-13
-3.47804e-12
-1.34217e-11
-4.16367e-11
-1.19808e-10
3.86697e-09
2.98292e-08
1.2081e-07
3.30806e-07
-6.94325e-06
-5.0331e-05
-0.000179187
-0.000333984
8.67092e-05
0.167239
0.500719
0.833825
0.999779
0.999688
0.999374
0.998364
0.995867
0.996571
0.997157
0.996847
0.99521
0.836238
0.512297
0.189501
0.016422
-0.00125852
-0.000981447
-0.000410334
-8.04579e-05
5.13353e-06
4.86547e-06
4.0303e-06
1.92325e-06
4.4162e-07
-7.83633e-09
-8.20385e-09
-3.73432e-09
-5.65771e-10
-6.84812e-13
-1.11779e-29
-5.15192e-29
5.58032e-27
1.54747e-25
9.6562e-25
-2.68366e-24
-8.24199e-23
-2.44465e-21
-1.99499e-20
-6.89182e-20
1.55745e-18
1.56279e-17
8.09341e-17
-5.40068e-16
-5.6283e-15
-2.70854e-14
-1.3365e-13
-1.28137e-12
-8.60678e-12
-2.84651e-11
-8.55815e-11
-2.56055e-10
6.89798e-09
5.31584e-08
2.06449e-07
5.36639e-07
-1.06076e-05
-7.73903e-05
-0.00025976
-0.000451009
0.000218752
0.167683
0.501155
0.834081
0.999493
0.999299
0.99864
0.996571
0.991636
0.993079
0.994261
0.993663
0.990572
0.835674
0.516654
0.19941
0.0228746
-0.00142106
-0.00109745
-0.000514826
-0.00013734
4.63257e-06
4.22501e-06
3.60152e-06
1.98813e-06
6.85345e-07
5.53858e-09
-5.52303e-09
-3.22991e-09
-3.13043e-11
-2.90589e-30
-3.4858e-28
1.17644e-27
7.99855e-26
1.48914e-24
6.70259e-25
-4.05209e-23
-9.76231e-22
-1.20983e-20
-8.55377e-20
-1.02048e-19
6.25257e-18
8.32962e-17
3.51619e-17
-2.40914e-15
-1.51744e-14
-6.73557e-14
-4.11603e-13
-4.07519e-12
-1.6885e-11
-5.35237e-11
-1.73286e-10
-4.88222e-10
1.21509e-08
9.16832e-08
3.65546e-07
8.11017e-07
-1.44932e-05
-0.000110271
-0.000354006
-0.000595092
0.00050834
0.16848
0.501945
0.834507
0.998887
0.998485
0.997157
0.993079
0.983703
0.986527
0.988761
0.987683
0.982138
0.832343
0.519581
0.209296
0.0289365
-0.00149367
-0.00118785
-0.000603972
-0.000176149
3.76402e-07
3.20865e-06
2.82738e-06
1.63389e-06
4.52456e-07
-7.76083e-09
-6.54156e-09
-2.27085e-09
-4.8568e-31
-2.14944e-28
-2.8548e-27
3.18036e-26
8.22723e-25
6.73406e-24
-1.4153e-23
-3.09403e-22
-5.77304e-21
-5.20204e-20
-4.53546e-19
1.01783e-19
2.92501e-17
1.65229e-16
-1.95848e-16
-5.6376e-15
-2.78757e-14
-7.69943e-14
-8.76262e-13
-7.36485e-12
-2.89953e-11
-9.96081e-11
-3.23983e-10
-8.37889e-10
2.21248e-08
1.64433e-07
6.09213e-07
1.14466e-06
-1.95863e-05
-0.000150262
-0.000468031
-0.000767202
0.00106351
0.169874
0.503299
0.835131
0.997649
0.996847
0.994261
0.986526
0.969469
0.973901
0.978542
0.976904
0.967721
0.823833
0.51834
0.216101
0.0327794
-0.00159538
-0.00130285
-0.000647602
-0.000186067
2.75051e-06
2.61566e-06
2.09035e-06
1.03728e-06
1.98221e-07
6.63805e-09
-1.47215e-09
2.5508e-30
-9.44283e-29
-2.51577e-27
-1.07773e-26
3.15616e-25
4.50725e-24
2.63652e-23
7.92747e-24
-1.8676e-21
-2.43101e-20
-2.45682e-19
-1.74132e-18
1.97684e-18
9.96476e-17
1.96444e-16
2.24793e-16
-5.19235e-16
-2.2732e-15
-3.70907e-16
-1.53707e-12
-1.24806e-11
-4.98425e-11
-1.7937e-10
-6.22824e-10
-1.23986e-09
3.6786e-08
2.65105e-07
8.9369e-07
1.52943e-06
-2.62927e-05
-0.000198037
-0.000602732
-0.000961171
0.00206611
0.172261
0.50547
0.835873
0.995209
0.993663
0.988761
0.9739
0.946496
0.952343
0.961504
0.95907
0.944545
0.806731
0.508956
0.215568
0.0321812
-0.00190569
-0.00164972
-0.000936558
-0.000278432
2.76009e-06
2.90617e-06
2.19992e-06
8.78226e-07
1.01034e-08
-2.03386e-09
4.5386e-30
-2.233e-29
-1.27711e-27
-2.60336e-26
4.46071e-26
2.01695e-24
2.02708e-23
8.76432e-23
6.52672e-22
-5.58668e-21
-9.42076e-20
-9.9195e-19
-7.12408e-18
2.96726e-17
1.3363e-16
1.98094e-16
2.98916e-16
5.83996e-16
2.40025e-15
-2.61069e-15
-2.83506e-12
-2.05317e-11
-8.51936e-11
-3.29196e-10
-9.89074e-10
-1.61674e-09
5.1218e-08
3.80788e-07
1.201e-06
1.96165e-06
-3.34584e-05
-0.000252606
-0.000753304
-0.00116651
0.00380943
0.176159
0.508651
0.836392
0.990572
0.987682
0.978541
0.952341
0.913334
0.920594
0.934903
0.931073
0.908944
0.776643
0.487052
0.203373
0.0249537
-0.00190176
-0.00145002
-0.000715551
-0.0001161
1.82687e-06
2.4754e-06
1.76762e-06
4.79252e-07
-9.10536e-09
1.94047e-30
3.60005e-29
-4.38051e-28
-1.46e-26
-1.75776e-25
4.25822e-25
1.07534e-23
7.62644e-23
4.8158e-22
2.35866e-21
-7.92901e-23
-3.16692e-19
-3.97744e-18
-1.32977e-17
2.78712e-17
1.04896e-16
2.56747e-16
5.63687e-16
1.75582e-15
6.54824e-15
-9.19308e-15
-3.55589e-12
-3.11131e-11
-1.42397e-10
-5.21787e-10
-1.38553e-09
-1.74238e-09
6.83957e-08
5.07982e-07
1.53657e-06
2.36678e-06
-4.01662e-05
-0.00031118
-0.000911291
-0.00137065
0.00664602
0.182078
0.512754
0.835816
0.982136
0.976902
0.9615
0.920591
0.867501
0.875538
0.894278
0.888653
0.857192
0.729826
0.44994
0.177015
0.0112415
-0.000771901
-0.000547756
-0.00031234
-8.74058e-05
2.5504e-06
2.35209e-06
1.3318e-06
1.99412e-07
4.68139e-32
2.41492e-29
1.88459e-28
-4.55104e-27
-1.0233e-25
-6.17707e-25
3.50009e-24
4.50966e-23
3.15912e-22
1.66386e-21
5.43518e-21
4.68517e-20
-1.28762e-18
-7.77429e-18
-2.03452e-17
1.11031e-17
1.29257e-16
4.17008e-16
1.14512e-15
4.30543e-15
1.78144e-14
-2.44603e-14
-2.34064e-12
-3.73558e-11
-2.201e-10
-9.07343e-10
-1.63911e-09
-1.60597e-09
8.72266e-08
6.46077e-07
1.84849e-06
2.57545e-06
-4.57381e-05
-0.000369991
-0.00106707
-0.00156347
0.0108572
0.190219
0.517069
0.832469