/*--------------------------------*- C++ -*----------------------------------*\
| =========                 |                                                 |
| \\      /  F ield         | OpenFOAM: The Open Source CFD Toolbox           |
|  \\    /   O peration     | Version:  v2106                                 |
|   \\  /    A nd           | Website:  www.openfoam.com                      |
|    \\/     M anipulation  |                                                 |
\*---------------------------------------------------------------------------*/
FoamFile
{
    version     2.0;
    format      ascii;
    arch        "LSB;label=32;scalar=64";
    class       volScalarField;
    location    "1.2";
    object      T;
}
// * * * * * * * * * * * * * * * * * * * * * * * * * * * * * * * * * * * * * //

dimensions      [0 0 0 1 0 0 0];

internalField   nonuniform List<scalar> 
3600
(
1
1
1
1
1
1
0.428571
0.047619
7.14285e-11
2.07825e-32
-6.46326e-41
4.34532e-33
1.33093e-33
3.82031e-36
1.58571e-42
-1.35915e-44
-1.02776e-43
-2.63256e-43
-2.9453e-43
-2.24485e-43
-5.05251e-44
-4.27591e-45
-1.15836e-45
-1.60303e-45
-2.23782e-45
-8.25964e-45
-7.57765e-44
-2.26016e-41
-1.70168e-41
3.38738e-40
1.10074e-39
-2.11849e-39
-1.89506e-36
-1.1911e-33
-1.09574e-32
-5.6184e-32
-3.83056e-32
-4.8822e-33
4.13407e-34
1.95245e-33
9.85348e-34
2.235e-36
-7.82733e-37
-8.33615e-35
-2.64131e-35
-4.65093e-39
1.93994e-40
1.65778e-40
3.58615e-41
-4.35769e-43
-1.0604e-43
1.16556e-43
6.9797e-44
2.3972e-44
-1.41426e-44
-5.99455e-43
-4.17004e-43
-1.16003e-43
3.6575e-44
1.70139e-43
1
1
1
1
1
1
0.928571
0.496032
0.139881
-4.65897e-16
-1.9967e-16
-3.32784e-17
1.08677e-26
7.82546e-27
4.0086e-27
1.18576e-27
1.23884e-28
6.28413e-35
1.12286e-34
2.52961e-34
4.10085e-34
6.64009e-34
1.09683e-33
1.67615e-33
1.58555e-33
1.61929e-33
1.50894e-33
1.60562e-33
-1.21619e-31
-7.10534e-31
-1.00121e-30
7.24492e-31
1.47639e-29
6.22655e-29
4.61386e-29
1.66974e-29
-1.112e-30
-1.93489e-29
-1.79488e-29
-7.44998e-30
-2.53346e-32
1.69295e-34
4.64872e-33
1.38767e-33
1.54806e-34
3.08987e-35
-4.16133e-38
-3.0587e-39
7.68768e-40
8.67555e-40
1.38406e-40
1.17087e-41
2.23926e-41
1.71851e-41
9.80362e-42
4.54852e-42
-2.53814e-42
-1.12201e-41
-7.02687e-42
-1.39002e-42
1
1
1
1
1
1
1
0.860119
0.5
0.15997
-4.79911e-10
-2.87947e-10
-1.34375e-10
-2.87947e-11
-8.63843e-20
3.39836e-27
1.58658e-27
2.80362e-28
3.31916e-33
5.40566e-33
7.6059e-33
4.63959e-32
4.04839e-31
3.11163e-30
2.03605e-29
1.12041e-28
5.70923e-28
4.88165e-27
3.50201e-26
3.06296e-26
1.06052e-26
-2.32462e-26
-2.17095e-26
-7.63323e-27
5.2952e-28
1.94849e-27
1.79458e-27
1.14443e-27
2.81514e-28
-3.45436e-30
-1.33019e-30
-6.81248e-32
1.96324e-34
2.03145e-33
5.92588e-34
2.14955e-35
-1.57713e-36
-7.67785e-37
9.04131e-39
-2.7074e-39
-1.00486e-39
-1.04167e-40
-3.997e-41
1.73804e-40
1.54263e-40
1.01051e-40
5.17321e-41
1.53414e-41
-5.78006e-41
-3.55179e-41
1
1
1
1
1
1
1
1
0.84003
0.5
0.164993
5.34599e-11
-1.34375e-10
-9.90782e-11
-3.96313e-11
-4.95391e-12
1.49168e-20
6.89194e-21
1.56926e-21
1.29406e-24
1.01073e-24
-1.30638e-23
-1.27644e-23
-1.15768e-23
-9.73961e-24
-7.55255e-24
-5.36787e-24
-3.3436e-24
-1.69888e-24
2.48814e-25
2.75447e-25
1.46922e-25
-1.94636e-26
-1.65961e-25
-1.53784e-25
-1.14675e-25
-3.08907e-26
4.84554e-28
-8.47706e-29
-5.28863e-30
-5.57822e-30
-3.34248e-30
9.25748e-33
6.2602e-33
8.3845e-34
6.15045e-35
8.25721e-36
-2.1377e-36
-9.53967e-37
3.96997e-38
-4.73758e-39
-2.9141e-39
-1.25063e-39
-3.20483e-40
1.28778e-39
1.38014e-39
8.58813e-40
4.54813e-40
1.38202e-40
-1.89036e-40
1
1
1
1
1
1
1
1
1
0.835007
0.5
0.166248
-1.34375e-10
-1.2261e-10
-7.77919e-11
-3.08846e-11
-3.71543e-12
5.79453e-20
3.56216e-20
1.59954e-20
4.35327e-21
1.34392e-21
-3.8647e-22
-3.28914e-22
-2.43923e-22
-1.76814e-22
-1.23604e-22
-8.01728e-23
-4.46788e-23
-1.80614e-23
3.11863e-24
2.04294e-24
4.44109e-25
-1.79382e-25
-1.25141e-25
-1.12028e-25
-6.07401e-26
-1.28253e-26
-1.03919e-28
-3.12623e-29
-1.47696e-29
-1.60798e-29
-1.58994e-31
-2.16117e-33
1.32552e-33
7.84929e-34
1.01503e-34
-3.06101e-36
-2.11603e-36
-3.21624e-37
8.96586e-39
-6.85805e-39
-7.32455e-39
-5.00253e-39
-1.60076e-39
1.73717e-39
1.33278e-38
9.59237e-39
4.9882e-39
7.87369e-40
1
1
1
1
1
1
1
1
1
1
0.833752
0.5
0.166562
-6.45827e-10
-4.33877e-10
-2.40662e-10
-8.62695e-11
-4.53656e-12
7.23333e-19
4.32065e-19
1.91881e-19
5.21384e-20
1.51058e-20
-5.85592e-21
-4.44094e-21
-2.87513e-21
-1.76285e-21
-1.03364e-21
-5.7165e-22
-2.634e-22
-3.58686e-23
1.05782e-23
7.1724e-24
2.72149e-24
-1.07745e-24
-1.05422e-24
-5.17409e-25
-3.73573e-27
1.0942e-27
8.42924e-28
9.55817e-29
2.65862e-29
-1.39697e-30
-7.14147e-31
-7.17883e-32
5.84938e-35
7.7695e-35
4.89826e-35
1.60959e-35
2.21782e-36
9.12215e-37
8.54158e-38
-5.57029e-38
-4.82414e-38
-3.01983e-38
-1.05233e-38
5.8559e-39
6.15628e-38
4.96479e-38
1.88242e-38
0.428571
0.928571
1
1
1
1
1
1
1
1
1
0.833438
0.5
0.166641
-1.2717e-10
-2.40663e-10
-1.98556e-10
-8.90226e-11
-1.7128e-11
4.57659e-18
2.73993e-18
1.20675e-18
3.2305e-19
8.41597e-20
-4.98572e-20
-3.52086e-20
-2.06846e-20
-1.09868e-20
-5.32542e-21
-2.41632e-21
-6.18592e-22
8.16934e-23
7.27529e-23
4.80587e-23
1.11167e-23
2.36032e-25
-2.46208e-25
-7.10269e-26
-1.08851e-26
-7.03437e-28
-4.56667e-30
2.65016e-29
7.0897e-30
-5.41729e-31
-2.47835e-31
-4.4534e-32
-2.46995e-34
-5.79955e-34
1.71302e-34
1.65776e-34
9.55246e-35
2.60023e-35
-7.30599e-36
-4.41318e-36
-1.8638e-36
-2.52153e-37
-5.46136e-38
2.1912e-38
2.44826e-37
1.54316e-37
0.047619
0.496032
0.860119
1
1
1
1
1
1
1
1
1
0.833359
0.5
0.16666
-2.40662e-10
-2.26627e-10
-1.59118e-10
-7.01675e-11
-1.28461e-11
1.9172e-17
1.15701e-17
5.08922e-18
1.36163e-18
3.08825e-19
-2.84831e-19
-1.88712e-19
-9.96475e-20
-4.45713e-20
-1.74478e-20
-5.67831e-21
8.16332e-22
6.66083e-22
3.47819e-22
1.18995e-22
-2.51924e-24
-1.72829e-24
-3.71803e-25
-4.81218e-26
2.51228e-27
7.29903e-28
1.80929e-29
2.10611e-30
-8.66117e-31
-7.58315e-31
-3.95619e-31
-6.53053e-32
-5.29084e-33
-1.51087e-33
9.17254e-34
7.45132e-34
3.7953e-34
1.02489e-34
-6.16971e-35
-4.16627e-35
-1.77823e-35
-1.81445e-36
-4.57048e-37
4.18602e-38
6.12909e-37
7.14285e-11
0.139881
0.5
0.84003
1
1
1
1
1
1
1
1
1
0.83334
0.5
0.166665
-7.54694e-10
-5.44633e-10
-3.3392e-10
-1.40329e-10
-2.1767e-11
6.19472e-17
3.7527e-17
1.64493e-17
4.86279e-18
2.9333e-19
-1.0819e-18
-6.75569e-19
-3.27263e-19
-1.24238e-19
-4.27303e-20
-6.33718e-22
1.27069e-21
1.0556e-21
5.59615e-22
1.22135e-22
-1.12782e-24
-5.4468e-25
-6.72314e-26
-1.13608e-26
-2.67589e-27
-6.12239e-28
-1.21507e-28
-3.4613e-30
-7.39534e-31
-3.76309e-31
-1.12507e-31
-7.49886e-32
-3.45682e-32
-9.04415e-33
4.84811e-33
3.09168e-33
1.37307e-33
3.41125e-34
-2.1045e-34
-1.80525e-34
-8.93181e-35
-1.94449e-35
-3.47186e-36
3.62546e-37
6.41819e-17
-3.31129e-16
0.15997
0.5
0.835007
1
1
1
1
1
1
1
1
1
0.833335
0.5
0.166666
-2.55348e-10
-3.33921e-10
-2.81116e-10
-1.41094e-10
-3.55402e-11
1.61762e-16
9.82695e-17
4.33656e-17
1.11178e-17
6.99314e-19
-2.35573e-18
-1.8487e-18
-9.74978e-19
-4.10961e-19
-8.21643e-20
8.80457e-21
5.73231e-21
3.01348e-21
1.12206e-21
5.4165e-25
1.6099e-25
-1.89139e-26
-6.89734e-27
-3.54541e-27
-1.3909e-27
-9.03973e-28
-4.18293e-28
-3.42936e-29
8.379e-31
7.32469e-31
2.33252e-31
-2.8495e-31
-1.50219e-31
-3.25612e-32
2.2442e-32
1.34526e-32
5.2451e-33
1.4103e-33
-7.86226e-34
-7.36406e-34
-4.30217e-34
-1.47071e-34
-1.23005e-36
7.8479e-19
-1.42007e-16
-4.79911e-10
0.164993
0.5
0.833752
1
1
1
1
1
1
1
1
1
0.833334
0.5
0.166667
-3.33934e-10
-3.1633e-10
-2.33553e-10
-1.1339e-10
-2.66527e-11
3.45061e-16
2.11492e-16
9.33697e-17
2.79271e-17
-2.82912e-18
-3.11005e-18
-3.28206e-18
-2.14156e-18
-9.52345e-19
-2.4525e-19
2.16499e-20
1.63647e-20
7.30802e-21
1.06524e-21
-1.46247e-22
1.37417e-25
-1.1189e-28
-3.7057e-28
1.17189e-27
8.69227e-28
-1.24317e-28
-6.6719e-29
1.26418e-29
8.70697e-30
4.94908e-30
1.05741e-30
-6.58378e-31
-3.79675e-31
-6.54863e-32
7.69211e-32
5.13937e-32
2.42477e-32
7.08584e-33
-4.1385e-33
-3.31689e-33
-1.71915e-33
-3.54384e-34
6.66172e-20
-2.30318e-17
-2.87947e-10
5.34595e-11
0.166248
0.5
0.833438
1
1
1
1
1
1
1
1
1
0.833333
0.5
0.166667
-8.51628e-10
-6.45667e-10
-4.18432e-10
-1.93548e-10
-4.05434e-11
6.28631e-16
4.11458e-16
1.91459e-16
4.73077e-17
1.34743e-20
-2.69855e-18
-5.36218e-18
-4.2332e-18
-1.89576e-18
-4.32212e-19
3.05501e-20
2.7168e-20
1.36492e-20
2.02963e-21
-4.30988e-23
-2.19489e-23
5.61178e-28
-1.02996e-27
1.22452e-27
4.10734e-31
-2.29514e-28
2.58675e-29
9.33786e-29
4.93727e-29
2.11315e-29
9.27294e-31
-4.96516e-31
-3.45747e-31
-5.75264e-32
2.84773e-31
2.10526e-31
1.05544e-31
3.20322e-32
-1.75382e-32
-1.41876e-32
-4.24251e-33
3.51498e-34
3.84929e-26
-1.34375e-10
-1.34375e-10
-1.34375e-10
0.166562
0.5
0.833359
1
1
1
1
1
1
1
1
1
0.833333
0.5
0.166667
-3.73006e-10
-4.18501e-10
-3.57722e-10
-1.92341e-10
-6.07499e-11
1.00239e-15
7.55604e-16
3.34746e-16
7.54385e-17
1.31457e-17
-2.64379e-18
-8.33899e-18
-7.41479e-18
-3.53211e-18
-6.50681e-19
2.45439e-20
2.05494e-20
7.64709e-21
-9.48625e-22
-1.38753e-23
-6.89931e-24
-5.49974e-25
-1.18759e-25
-3.58313e-26
-1.48947e-27
-4.31386e-28
6.42937e-29
2.92352e-28
1.70386e-28
5.95872e-29
-4.81141e-30
-2.96573e-30
-1.35797e-30
-1.51092e-31
9.43435e-31
7.17403e-31
3.59228e-31
9.17664e-32
-6.24548e-32
-3.92534e-32
-4.2583e-34
2.26684e-26
-2.87947e-11
-9.90783e-11
-1.2261e-10
-6.45826e-10
0.166641
0.5
0.83334
1
1
1
1
1
1
1
1
1
0.833333
0.5
0.166667
-4.18867e-10
-3.98538e-10
-3.0391e-10
-1.57951e-10
-4.23988e-11
1.40871e-15
1.10333e-15
4.93486e-16
1.49487e-16
3.62391e-17
-5.57454e-18
-7.26438e-18
-1.20314e-17
-8.15675e-18
-1.43481e-18
1.70152e-20
1.18337e-20
4.45212e-21
1.62744e-23
-9.27989e-24
-4.36894e-24
1.5069e-25
6.90489e-28
-7.06956e-27
-4.32963e-27
-1.69983e-27
-3.71168e-28
8.11521e-28
6.08932e-28
1.7376e-28
-2.34487e-29
-1.40522e-29
-8.08174e-30
-2.44008e-30
2.72418e-30
2.07065e-30
8.84024e-31
1.8383e-31
-1.49816e-31
-4.2583e-34
1.1805e-26
-8.63842e-20
-3.96313e-11
-7.7792e-11
-4.33877e-10
-1.2717e-10
0.16666
0.5
0.833335
1
1
1
1
1
1
1
1
1
0.833333
0.5
0.166667
-8.20298e-10
-6.66777e-10
-4.71995e-10
-2.31181e-10
-5.5298e-11
1.78359e-15
1.59305e-15
1.12534e-15
6.98848e-16
3.86541e-16
1.76516e-16
5.07155e-17
-6.80959e-18
-3.31026e-18
-1.62807e-19
7.46057e-21
-1.93734e-21
-2.48204e-22
4.51064e-23
1.91473e-23
2.13665e-24
6.87482e-25
-3.93876e-26
-3.5916e-26
-2.97556e-26
-1.38365e-26
-1.32696e-27
8.33874e-28
5.33069e-28
-8.80621e-30
-1.25657e-28
-9.25729e-29
-5.19225e-29
-1.60834e-29
1.82174e-29
1.07392e-29
3.55369e-30
1.02256e-31
-4.2583e-34
3.25351e-27
4.10809e-26
-4.95392e-12
-3.08846e-11
-2.40662e-10
-2.40662e-10
-2.40664e-10
0.166665
0.5
0.833334
1
1
1
1
1
1
1
1
1
0.833333
0.5
0.166667
-3.36055e-10
-4.73368e-10
-4.09755e-10
-2.29727e-10
-7.98122e-11
-2.20269e-12
-5.60924e-14
-2.72272e-15
3.56992e-16
3.03281e-16
1.5376e-16
1.47409e-17
-2.12277e-18
-1.13895e-18
-3.30358e-19
6.6614e-22
7.6583e-22
1.65347e-22
3.0388e-23
9.76845e-24
1.00948e-24
-2.46339e-26
-3.03963e-26
-3.30394e-26
-2.98893e-26
-1.61773e-26
-1.7399e-27
1.20802e-27
7.66704e-28
-3.92638e-28
-5.71729e-28
-4.1731e-28
-2.15977e-28
-4.42446e-29
3.61196e-29
2.34272e-29
6.55381e-30
-4.2583e-34
1.14526e-32
2.14647e-26
1.48624e-20
-3.71544e-12
-8.62699e-11
-1.98554e-10
-2.26628e-10
-7.54717e-10
0.166666
0.5
0.833333
1
1
1
1
1
1
1
1
1
0.833333
0.5
0.166667
-4.74713e-10
-4.53266e-10
-3.53706e-10
-1.89125e-10
-5.58065e-11
-1.42407e-13
-2.81473e-14
-8.417e-16
1.44977e-16
8.88475e-17
4.32182e-17
-2.61557e-18
-1.94936e-18
-5.34813e-19
-9.14136e-22
6.02279e-22
2.96525e-22
4.49891e-23
2.27861e-23
4.91775e-24
5.69761e-25
5.27745e-25
2.86277e-25
1.01556e-25
1.51728e-27
7.10332e-27
8.59178e-27
7.21403e-27
4.21789e-27
-1.71734e-27
-2.24168e-27
-1.57347e-27
-7.17832e-28
-4.97206e-29
1.09823e-28
6.15319e-29
-4.25806e-34
5.33507e-33
7.87107e-27
8.9176e-21
2.52732e-21
-4.53696e-12
-8.9022e-11
-1.59118e-10
-5.44662e-10
-2.55433e-10
0.166667
0.5
0.833333
1
1
1
1
1
1
1
1
1
0.833333
0.5
0.166667
-7.09039e-10
-6.29388e-10
-4.88631e-10
-2.48995e-10
-6.30166e-11
-2.73918e-14
-3.43331e-15
-9.10146e-16
-1.03503e-16
3.67853e-18
-3.31636e-19
-1.17203e-18
-8.51985e-20
-1.42883e-20
-1.65276e-21
1.01063e-22
3.72344e-23
2.40418e-23
9.7483e-24
-2.17188e-26
1.02599e-25
8.97903e-25
1.03031e-24
5.76745e-25
1.9712e-25
9.00364e-26
6.05145e-26
4.0944e-26
2.38847e-26
-1.49356e-26
-1.43825e-26
-7.77742e-27
-2.4832e-27
7.55219e-28
5.1577e-28
-4.25009e-34
1.12414e-33
9.32095e-28
4.16128e-21
4.16224e-21
4.19882e-21
-1.71278e-11
-7.01673e-11
-3.33926e-10
-3.33952e-10
-3.34156e-10
0.166667
0.5
0.833333
1
1
1
1
1
1
1
1
1
0.833333
0.5
0.166667
-2.38228e-10
-4.85985e-10
-4.24243e-10
-2.40867e-10
-8.1899e-11
-2.51474e-15
-9.86536e-16
-4.71395e-16
-1.63597e-16
-3.26432e-17
-2.29883e-18
-4.35294e-20
-2.59246e-20
-1.66821e-20
-6.93471e-21
-1.96982e-23
2.97933e-24
-8.30685e-24
-1.5094e-23
-1.27075e-23
-6.69027e-24
-6.29238e-26
1.82693e-24
1.3445e-24
8.58211e-25
5.12213e-25
3.426e-25
2.21121e-25
8.70047e-26
-5.39929e-26
-4.68661e-26
-2.36302e-26
-6.59262e-27
4.22307e-27
-4.21275e-34
1.75548e-33
-2.62147e-30
8.891e-22
3.01039e-21
3.80441e-21
5.62738e-20
-1.2846e-11
-1.40349e-10
-2.8104e-10
-3.16482e-10
-8.52906e-10
0.166667
0.5
0.833333
1
1
1
1
1
1
1
1
1
0.833333
0.5
0.166667
-4.85656e-10
-4.64294e-10
-3.64121e-10
-1.90657e-10
-4.86759e-11
-5.58654e-16
-4.08196e-16
-2.9388e-16
-8.6434e-17
-3.34583e-18
-3.35094e-19
3.98259e-22
-1.04934e-20
-9.97215e-21
-4.30528e-21
-1.85784e-23
-8.53744e-23
-2.32924e-22
-2.05323e-22
-1.0491e-22
-3.64586e-23
7.51698e-24
7.67109e-24
6.66143e-24
4.86262e-24
2.85089e-24
1.86076e-24
1.00997e-24
2.98403e-25
-2.92206e-25
-1.85755e-25
-8.00444e-26
-6.40989e-28
-4.13078e-34
3.49923e-33
-2.62028e-30
3.68987e-29
1.19769e-21
2.3692e-21
3.52641e-20
1.46082e-20
-2.17821e-11
-1.41012e-10
-2.33515e-10
-6.46911e-10
-3.76187e-10
0.166667
0.5
0.833333
1
1
1
1
1
1
1
1
1
0.833333
0.5
0.166667
-7.01529e-10
-6.31163e-10
-4.26668e-10
-1.93403e-10
-3.50259e-11
4.79594e-18
-1.04136e-16
-3.66793e-17
-1.57475e-18
1.2119e-18
-6.19223e-20
-4.87423e-20
-3.38794e-20
-1.79963e-20
-3.39632e-21
-2.47089e-22
-3.14141e-22
-4.43399e-22
-3.96786e-22
-2.21388e-22
-6.66257e-23
1.00516e-23
9.776e-24
1.01745e-23
1.13768e-23
1.20359e-23
9.02543e-24
4.06367e-24
6.23569e-25
-7.43206e-25
-4.44404e-25
-1.14536e-25
-4.06207e-34
7.51752e-33
-1.53794e-30
-1.93266e-29
1.42184e-22
9.26881e-22
1.76088e-20
1.78341e-20
2.19066e-20
-3.54813e-11
-1.13308e-10
-4.18754e-10
-4.19581e-10
-4.22828e-10
0.166667
0.5
0.833333
1
1
1
1
1
1
1
1
1
0.833333
0.5
0.166667
-2.05353e-10
-5.45979e-10
-4.47738e-10
-2.09346e-10
-3.53824e-11
6.32201e-16
3.70478e-16
1.69459e-16
5.82564e-17
1.11524e-18
-1.76979e-19
-1.59645e-19
-1.1554e-19
-5.6842e-20
-9.92377e-21
-3.91952e-22
-5.38703e-22
-6.44429e-22
-5.81832e-22
-3.28436e-22
-8.70497e-23
-2.90486e-24
4.31729e-24
9.30929e-24
1.25753e-23
2.02725e-23
1.67041e-23
7.26352e-24
4.61488e-25
-1.49271e-24
-7.19895e-25
-3.99309e-34
1.06153e-32
-6.62628e-31
-1.18212e-29
-8.88471e-27
9.81835e-23
4.73193e-21
1.35037e-20
1.91431e-20
1.56758e-19
-2.65868e-11
-1.93483e-10
-3.57402e-10
-4.01508e-10
-8.26787e-10
0.166667
0.5
0.833333
1
1
1
1
1
1
1
1
1
0.833333
0.5
0.166667
-5.4379e-10
-5.10764e-10
-3.9964e-10
-1.7982e-10
-3.30136e-11
2.20419e-15
1.34693e-15
6.09079e-16
1.72798e-16
-9.33865e-19
-7.14869e-19
-5.06199e-19
-3.10894e-19
-1.39309e-19
-2.95839e-20
-5.97065e-21
-1.29338e-21
-1.04716e-21
-7.66047e-22
-4.00805e-22
-1.45458e-22
-6.25054e-23
-3.1601e-23
-1.19059e-23
6.17557e-24
2.52442e-23
2.15879e-23
8.65842e-24
-1.80559e-24
-2.61987e-24
-3.8462e-34
9.45014e-33
-2.27886e-31
-5.35416e-30
-8.56857e-27
1.14898e-25
8.73351e-25
4.92899e-21
1.10515e-20
8.71732e-20
1.70676e-19
-4.03689e-11
-1.91348e-10
-3.04461e-10
-6.74614e-10
-3.57288e-10
0.166667
0.5
0.833333
1
1
1
1
1
1
1
1
1
0.833333
0.5
0.166667
-6.91236e-10
-6.36893e-10
-4.50046e-10
-1.81657e-10
-2.01532e-11
6.86477e-15
4.20574e-15
1.87975e-15
5.12159e-16
-5.58547e-18
-3.61989e-18
-1.94237e-18
-9.09504e-19
-3.20693e-19
-6.66601e-20
-2.0596e-20
-2.23556e-21
-1.64128e-21
-1.1669e-21
-7.21513e-22
-4.61237e-22
-3.00935e-22
-2.06971e-22
-1.20346e-22
-4.1096e-23
3.61801e-23
2.95926e-23
1.0856e-23
-4.08693e-24
-2.51777e-34
-5.88036e-34
3.47244e-31
-1.69784e-30
-6.77782e-27
8.13487e-26
1.10092e-25
1.32314e-22
3.58683e-21
3.12026e-20
1.19013e-19
6.48498e-19
-5.68542e-11
-1.5513e-10
-4.76436e-10
-4.72128e-10
-4.80027e-10
0.166667
0.5
0.833333
1
1
1
1
1
1
1
1
1
0.833333
0.5
0.166667
5.76506e-11
-7.79841e-10
-5.10093e-10
-2.01004e-10
-2.75185e-11
2.05799e-14
1.26086e-14
5.6115e-15
1.506e-15
-2.72287e-17
-1.68125e-17
-8.04433e-18
-3.10218e-18
-5.08722e-19
-2.01549e-19
-4.95888e-20
-5.11192e-21
-3.71647e-21
-2.84977e-21
-2.11446e-21
-1.65075e-21
-1.20911e-21
-8.4838e-22
-4.86649e-22
-1.14444e-22
8.57494e-23
6.27118e-23
1.63391e-23
-3.96831e-35
-6.29737e-32
2.58163e-31
6.92797e-30
-2.9179e-27
3.04975e-26
2.77088e-25
4.2426e-24
3.10392e-23
2.76883e-21
5.22951e-20
3.97326e-19
2.57799e-18
-3.90846e-11
-2.2728e-10
-4.01311e-10
-4.53654e-10
-7.36697e-10
0.166667
0.5
0.833333
1
1
1
1
1
1
1
1
1
0.833333
0.5
0.166667
-2.94397e-10
-1.18278e-09
-7.38538e-10
-3.01729e-10
-5.25083e-11
5.95121e-14
3.64847e-14
1.62081e-14
4.2949e-15
-1.05538e-16
-6.45459e-17
-2.97651e-17
-8.91946e-18
-1.68236e-18
-5.32308e-19
-2.43773e-20
-1.644e-20
-1.19293e-20
-9.47868e-21
-7.25475e-21
-5.76715e-21
-4.0966e-21
-2.73888e-21
-1.2349e-21
2.11122e-22
2.39559e-22
1.18403e-22
-4.12617e-39
-1.39001e-31
1.30165e-32
9.48625e-30
-8.99863e-29
1.52058e-26
2.33396e-25
2.38879e-24
1.87359e-23
1.23991e-22
1.4065e-20
1.78005e-19
1.55077e-18
9.63383e-18
-4.88076e-11
-2.12654e-10
-3.3605e-10
-6.48397e-10
-2.62714e-10
0.166667
0.5
0.833333
1
1
1
1
1
1
1
1
1
0.833333
0.5
0.166667
1.85278e-11
-2.0736e-09
-1.2844e-09
-5.39213e-10
-1.06796e-10
1.66909e-13
1.02432e-13
4.54606e-14
1.19264e-14
-3.42875e-16
-2.0964e-16
-9.39897e-17
-2.69752e-17
-4.28963e-18
-1.71494e-19
-9.3062e-20
-5.88983e-20
-4.03368e-20
-3.18105e-20
-2.33942e-20
-1.81502e-20
-1.19195e-20
-6.9823e-21
-1.34996e-21
1.11117e-21
6.80967e-22
3.59662e-39
-7.62891e-32
-2.85791e-31
2.6316e-30
-1.7244e-29
-5.58503e-27
1.23516e-25
1.3034e-24
1.10106e-23
7.30231e-23
4.42889e-22
5.10891e-20
6.84637e-19
5.90698e-18
4.19497e-17
-5.46566e-11
-1.62053e-10
-4.15619e-10
-5.26941e-10
-5.66285e-10
0.166667
0.5
0.833333
1
1
1
1
1
1
1
1
1
0.833333
0.5
0.166667
1.60319e-09
-4.00898e-09
-2.47477e-09
-1.05353e-09
-2.19754e-10
4.59353e-13
2.82181e-13
1.25194e-13
3.26547e-14
-9.65536e-16
-5.905e-16
-2.62578e-16
-7.74844e-17
-8.84284e-19
-5.19162e-19
-3.06722e-19
-1.97549e-19
-1.2708e-19
-9.89956e-20
-6.87754e-20
-5.12453e-20
-2.91681e-20
-1.22833e-20
2.7214e-21
2.9184e-21
9.49391e-39
-1.93192e-32
-1.02179e-31
-4.77433e-30
-2.11108e-29
-6.22666e-27
-3.61509e-26
4.83996e-25
5.48846e-24
4.09081e-23
2.4873e-22
1.40161e-21
1.89956e-19
2.66361e-18
2.55966e-17
1.9153e-16
-3.39708e-11
-1.70555e-10
-4.27676e-10
-5.22922e-10
-7.62015e-10
0.166667
0.5
0.833333
1
1
1
1
1
1
1
1
1
0.833333
0.5
0.166667
3.02393e-09
-8.01968e-09
-4.94443e-09
-2.11438e-09
-4.45251e-10
1.25818e-12
7.73341e-13
3.43138e-13
8.93528e-14
-2.40281e-15
-1.4728e-15
-6.5578e-16
-1.66614e-16
-2.2977e-18
-1.44189e-18
-8.90297e-19
-5.94692e-19
-3.76171e-19
-2.88314e-19
-1.84709e-19
-1.27559e-19
-5.69998e-20
1.47015e-20
8.58533e-21
5.02148e-38
-1.44449e-34
-3.75345e-32
-3.84423e-30
-1.98008e-29
-3.84516e-27
-3.88145e-26
-3.04372e-25
1.26319e-24
1.79187e-23
1.31024e-22
7.70123e-22
6.96842e-21
8.00315e-19
1.15674e-17
1.16589e-16
8.6229e-16
-2.07612e-11
-1.9555e-10
-3.74434e-10
-6.77266e-10
-4.24284e-11
0.166667
0.5
0.833333
1
1
1
1
1
1
1
1
1
0.833333
0.5
0.166667
6.62785e-09
-1.6003e-08
-9.86428e-09
-4.21704e-09
-8.79657e-10
3.46848e-12
2.13184e-12
9.46001e-13
2.46401e-13
-5.36008e-15
-3.29737e-15
-1.44293e-15
-3.43046e-16
-5.43143e-18
-3.67066e-18
-2.43212e-18
-1.71009e-18
-1.0719e-18
-7.88177e-19
-4.44663e-19
-2.62744e-19
-2.7606e-20
4.24489e-20
3.71619e-37
-1.7956e-34
-5.44252e-33
-1.85082e-30
-1.35517e-29
-1.59423e-27
-2.4453e-26
-2.20596e-25
-1.30375e-24
-3.94362e-25
4.93313e-23
3.71926e-22
3.02436e-21
2.20735e-20
3.56644e-18
5.26676e-17
5.24607e-16
3.69235e-15
-3.36882e-11
-1.55988e-10
-4.31332e-10
-6.885e-10
-2.76841e-10
0.166667
0.5
0.833333
1
1
1
1
1
1
1
1
1
0.833333
0.5
0.166667
1.42936e-08
-3.13635e-08
-1.93368e-08
-8.24729e-09
-1.69197e-09
9.6526e-12
5.92968e-12
2.63032e-12
6.84264e-13
-1.08244e-14
-6.67526e-15
-2.88598e-15
-7.27763e-16
-1.38882e-17
-9.7256e-18
-6.73064e-18
-4.77165e-18
-2.85073e-18
-1.97989e-18
-9.45504e-19
-3.73201e-19
1.86905e-19
1.52252e-35
-1.5267e-34
-4.53172e-33
9.1191e-32
-3.42789e-30
-3.05877e-28
-1.06611e-26
-1.23759e-25
-7.5433e-25
-4.02571e-24
-1.60411e-23
9.67052e-23
9.62807e-22
8.33139e-21
4.97928e-20
1.62119e-17
2.36642e-16
2.24676e-15
1.47889e-14
-2.09015e-11
-1.65737e-10
-4.56882e-10
-1.05034e-09
4.69345e-11
0.166667
0.5
0.833333
1
1
1
1
1
1
1
1
1
0.833333
0.5
0.166667
2.67531e-08
-6.00951e-08
-3.70654e-08
-1.57614e-08
-3.17594e-09
2.69348e-11
1.65352e-11
7.32672e-12
1.89515e-12
-1.97973e-14
-1.4338e-14
-6.30331e-15
-2.0822e-15
-3.90804e-17
-2.51285e-17
-1.72412e-17
-1.20584e-17
-6.76375e-18
-4.39981e-18
-1.77457e-18
4.09421e-19
6.83784e-35
-7.22121e-35
-2.61602e-33
-2.92856e-31
-7.77626e-31
-2.25515e-30
-2.73003e-27
-4.73495e-26
-4.56871e-25
-3.08595e-24
-1.62701e-23
-6.96121e-23
-5.80544e-22
2.2071e-22
1.43556e-20
1.45427e-19
7.2216e-17
1.01172e-15
9.00586e-15
5.51914e-14
-1.77549e-11
-1.79513e-10
-6.57599e-10
-1.9792e-09
1.92003e-09
0.166667
0.5
0.833333
1
1
1
1
1
1
1
1
1
0.833333
0.5
0.166667
5.00101e-08
-1.12641e-07
-6.95054e-08
-2.94695e-08
-5.8422e-09
7.43835e-11
4.56416e-11
2.01848e-11
5.15563e-12
-2.64675e-14
-2.37797e-14
-1.24161e-14
-4.63149e-15
-3.5878e-16
-6.86154e-17
-4.17039e-17
-2.68486e-17
-1.46603e-17
-8.59657e-18
-1.13169e-18
3.3479e-35
7.49814e-34
-1.4146e-33
-8.80963e-32
-8.42375e-31
-7.76078e-30
5.20187e-29
-1.13873e-26
-2.15026e-25
-1.84279e-24
-1.17013e-23
-6.06902e-23
-4.96343e-22
-1.73972e-21
-7.40515e-21
-4.24312e-21
1.4826e-19
3.02865e-16
4.04652e-15
3.36439e-14
1.92163e-13
-2.31903e-11
-2.68543e-10
-1.22574e-09
-4.35363e-09
4.35065e-09
0.166667
0.5
0.833333
1
1
1
1
1
1
1
1
1
0.833333
0.5
0.166667
9.22299e-08
-2.07146e-07
-1.27876e-07
-5.40833e-08
-1.05826e-08
2.0047e-10
1.22989e-10
5.42399e-11
1.36132e-11
-1.25429e-14
-3.59442e-14
-2.1657e-14
-8.33062e-15
-1.11135e-15
-1.6979e-16
-9.21377e-17
-5.21128e-17
-3.01608e-17
-1.05884e-17
3.63242e-36
6.41649e-34
3.20048e-33
-4.46977e-32
-6.68432e-31
-2.20155e-29
3.78974e-29
-5.41269e-30
-5.47584e-26
-8.60802e-25
-6.85003e-24
-4.32745e-23
-3.33144e-22
-1.47606e-21
-6.60541e-21
-1.63439e-20
-3.45886e-20
-3.9248e-20
1.18451e-15
1.50798e-14
1.1727e-13
6.26171e-13
-4.81463e-11
-5.2067e-10
-2.68321e-09
-1.0081e-08
1.07899e-08
0.166667
0.5
0.833333
1
1
1
1
1
1
1
1
1
0.833333
0.5
0.166667
1.65044e-07
-3.75212e-07
-2.31719e-07
-9.78182e-08
-1.89605e-08
5.21318e-10
3.19884e-10
1.40586e-10
3.45418e-11
1.05615e-15
-6.12358e-14
-3.77256e-14
-1.54927e-14
-3.16811e-15
-3.29637e-16
-1.7139e-16
-1.03514e-16
-4.96171e-17
1.9042e-38
3.61616e-34
3.03783e-33
3.5536e-32
-3.57968e-31
-1.98695e-29
-1.90598e-29
-6.28155e-29
-6.28819e-28
-2.788e-25
-3.3767e-24
-2.67954e-23
-2.01438e-22
-1.01228e-21
-4.57341e-21
-1.44492e-20
-3.51794e-20
-3.6868e-20
-7.22738e-19
4.31773e-15
5.24278e-14
3.82566e-13
1.91661e-12
-1.13602e-10
-1.16334e-09
-6.20358e-09
-2.32276e-08
2.55396e-08
0.166667
0.5
0.833333
1
1
1
1
1
1
1
1
1
0.833333
0.5
0.166667
2.9336e-07
-6.72009e-07
-4.15139e-07
-1.75023e-07
-3.37063e-08
1.29813e-09
7.96872e-10
3.48813e-10
8.34318e-11
7.92457e-14
-1.32556e-13
-8.20609e-14
-3.55489e-14
-9.42778e-15
-3.47117e-16
-4.67645e-16
-4.9111e-16
-6.12808e-38
1.40572e-34
1.88671e-33
3.28707e-32
8.62389e-31
-6.93827e-30
-2.78437e-29
-1.99958e-28
-1.47759e-27
1.13067e-26
-1.29233e-24
-1.334e-23
-1.02938e-22
-6.13106e-22
-2.88615e-21
-1.03238e-20
-3.38515e-20
-3.25468e-20
-4.41243e-19
-1.05612e-17
1.46838e-14
1.70574e-13
1.17231e-12
5.53065e-12
-2.7334e-10
-2.70705e-09
-1.4292e-08
-5.21003e-08
5.42336e-08
0.166667
0.5
0.833333
1
1
1
1
1
1
1
1
1
0.833333
0.5
0.166667
5.17839e-07
-1.19361e-06
-7.37513e-07
-3.10665e-07
-5.95227e-08
3.08159e-09
1.89278e-09
8.24611e-10
1.91333e-10
3.48213e-13
-3.7974e-13
-2.37152e-13
-1.04836e-13
-3.00208e-14
5.51889e-16
-7.82441e-17
-3.73854e-36
2.06367e-35
7.78466e-34
2.04756e-32
7.36321e-31
7.24462e-30
-1.18237e-29
-1.97267e-28
-4.16905e-27
7.34403e-27
2.12638e-25
-3.28836e-24
-3.16321e-23
-2.91163e-22
-1.65132e-21
-6.86574e-21
-3.00752e-20
-2.84583e-20
-2.09548e-19
-6.32681e-18
-8.63423e-17
4.67297e-14
5.2122e-13
3.38664e-12
1.50974e-11
-6.44015e-10
-6.23635e-09
-3.20695e-08
-1.12959e-07
1.12142e-07
0.166667
0.5
0.833333
1
1
1
1
1
1
1
1
1
0.833333
0.5
0.166668
9.04896e-07
-2.10555e-06
-1.30111e-06
-5.47643e-07
-1.04309e-07
6.95941e-09
4.27734e-09
1.85354e-09
4.16016e-10
1.02343e-12
-1.12628e-12
-8.94689e-13
-4.12185e-13
-1.2379e-13
8.98656e-15
-5.53822e-36
-7.8776e-37
3.18827e-34
1.05214e-32
3.8469e-31
6.7376e-30
2.53154e-29
-9.58786e-29
-6.66533e-27
-7.02215e-28
1.74991e-25
1.63227e-24
-3.3459e-24
-7.70248e-23
-7.90547e-22
-4.06649e-21
-2.38165e-20
-1.81447e-20
-7.77768e-20
-2.84048e-18
-5.19166e-17
-5.07326e-16
1.39626e-13
1.50122e-12
9.25473e-12
3.91081e-11
-1.46562e-09
-1.39564e-08
-6.95661e-08
-2.36324e-07
2.23872e-07
0.166667
0.5
0.833333
1
1
1
1
1
1
1
1
1
0.833333
0.500001
0.166669
1.56913e-06
-3.68739e-06
-2.2786e-06
-9.58089e-07
-1.80879e-07
1.49435e-08
9.19035e-09
3.95903e-09
8.59892e-10
-1.47004e-12
-1.62978e-12
-1.30371e-12
-6.95097e-13
-1.55053e-13
-2.35474e-36
-9.36913e-35
7.99407e-35
6.16108e-33
1.28549e-31
3.57478e-30
6.78013e-29
1.78417e-29
-5.05154e-27
-9.50592e-27
8.38426e-26
9.77326e-25
3.94397e-24
-1.64568e-23
-3.31513e-22
-2.24149e-21
-1.80855e-20
-1.715e-20
1.4905e-20
-9.33254e-19
-2.33355e-17
-3.06284e-16
-2.38839e-15
3.92985e-13
4.08925e-12
2.39978e-11
9.64022e-11
-3.20908e-09
-3.01605e-08
-1.45619e-07
-4.77201e-07
4.28509e-07
0.166668
0.500001
0.833333
1
1
1
1
1
1
1
1
1
0.833333
0.500002
0.166671
2.693e-06
-6.39828e-06
-3.95359e-06
-1.65971e-06
-3.09158e-07
3.05186e-08
1.87802e-08
8.04071e-09
1.67778e-09
-6.47311e-12
-4.58416e-12
-2.70656e-12
-9.39966e-13
-9.97601e-40
-7.01793e-35
-3.53545e-34
2.69727e-33
4.26921e-32
1.24028e-30
3.98778e-29
1.78141e-28
-1.93357e-27
-8.75487e-27
1.0618e-26
3.95139e-25
3.882e-24
1.66196e-24
-1.38812e-22
-1.25811e-21
-1.38163e-20
-1.5338e-20
9.44892e-21
1.05752e-19
-7.63044e-18
-1.37843e-16
-1.44701e-15
-9.53334e-15
1.04508e-12
1.05669e-11
5.92122e-11
2.26705e-10
-6.75688e-09
-6.28591e-08
-2.94188e-07
-9.30875e-07
7.94142e-07
0.166669
0.500001
0.833333
1
1
1
1
1
1
1
1
1
0.833333
0.500003
0.166674
4.5605e-06
-1.09669e-05
-6.77611e-06
-2.83781e-06
-5.18787e-07
5.933e-08
3.65306e-08
1.55317e-08
3.10954e-09
-1.90631e-11
-1.26415e-11
-4.64073e-12
-6.40356e-40
-3.78592e-35
-3.09378e-34
-9.1033e-34
-4.36795e-33
-1.44824e-31
1.094e-29
1.63367e-28
1.51331e-28
-4.14064e-27
2.31173e-28
1.35176e-25
1.58972e-24
1.28417e-23
-3.42781e-23
-7.63742e-22
-9.02116e-21
-1.5774e-20
-9.9434e-22
8.37763e-20
4.15259e-19
-4.30985e-17
-6.49905e-16
-5.79253e-15
-3.33707e-14
2.63335e-12
2.59753e-11
1.39371e-10
5.09772e-10
-1.369e-08
-1.26394e-07
-5.7412e-07
-1.75623e-06
1.42544e-06
0.16667
0.500002
0.833333
0.999999
1
1
1
1
1
1
1
1
0.833333
0.500005
0.16668
7.61535e-06
-1.85062e-05
-1.14335e-05
-4.7731e-06
-8.53507e-07
1.09923e-07
6.77126e-08
2.85814e-08
5.51031e-09
-4.9962e-11
-2.57062e-11
2.2011e-38
-1.51678e-35
-1.71151e-34
-9.71863e-34
-5.13552e-33
-9.23513e-32
-9.78659e-31
6.30957e-29
2.353e-28
-1.36316e-28
1.41903e-27
2.57889e-26
5.718e-25
1.20593e-23
1.91726e-24
-4.39725e-22
-5.2221e-21
-2.07157e-20
-1.23866e-20
4.44618e-20
3.16392e-19
1.01247e-18
-1.93484e-16
-2.5921e-15
-2.03258e-14
-1.04726e-13
6.30352e-12
6.08919e-11
3.13646e-10
1.0983e-09
-2.67193e-08
-2.45435e-07
-1.08356e-06
-3.2087e-06
2.47816e-06
0.166673
0.500004
0.833333
0.999999
1
1
1
1
1
1
1
0.999999
0.833334
0.500008
0.166689
1.25396e-05
-3.06483e-05
-1.89349e-05
-7.88106e-06
-1.39699e-06
1.94354e-07
1.19792e-07
5.03291e-08
9.7285e-09
-9.46929e-11
1.9753e-37
-3.94093e-36
-7.97622e-35
-6.85957e-34
-4.91375e-33
-2.80271e-32
-1.7623e-30
5.51492e-30
9.56719e-29
2.3387e-28
-1.13901e-27
5.74388e-27
1.32447e-25
6.42368e-24
2.63309e-23
-1.72476e-22
-2.60319e-21
-1.45985e-20
-4.29153e-20
-1.41124e-20
1.56566e-19
8.91411e-19
1.03705e-18
-7.39899e-16
-9.05776e-15
-6.39226e-14
-2.99219e-13
1.43682e-11
1.36433e-10
6.76241e-10
2.2715e-09
-5.02978e-08
-4.60804e-07
-1.98029e-06
-5.68476e-06
4.18414e-06
0.166678
0.500007
0.833333
0.999998
1
1
1
1
1
1
1
0.999999
0.833335
0.500015
0.166703
2.03179e-05
-4.9691e-05
-3.07152e-05
-1.2854e-05
-2.39596e-06
3.28388e-07
2.02904e-07
8.59733e-08
1.08272e-08
9.74262e-38
2.81169e-36
-2.5262e-35
-4.04648e-34
-3.51212e-33
-1.68249e-32
-2.83843e-31
-1.41014e-30
-4.81625e-30
1.28951e-28
-9.59779e-28
-9.90389e-27
2.81827e-26
2.21821e-24
2.48466e-23
-1.77864e-23
-9.74003e-22
-7.81349e-21
-3.55571e-20
-8.25438e-20
2.36398e-21
6.42886e-19
9.53311e-19
-2.72173e-20
-2.4819e-15
-2.83536e-14
-1.82977e-13
-7.87127e-13
3.12546e-11
2.9277e-10
1.39948e-09
4.51737e-09
-9.14439e-08
-8.37594e-07
-3.5092e-06
-9.77993e-06
6.86979e-06
0.166686
0.500012
0.833333
0.999997
1
1
1
1
1
1
1
0.999999
0.833337
0.500026
0.166727
3.24192e-05
-7.87216e-05
-5.03982e-05
-2.16645e-05
-4.30922e-06
5.30603e-07
3.76974e-07
1.01684e-07
1.93991e-38
1.82054e-36
1.0745e-35
-1.30377e-34
-1.85643e-33
-1.10558e-32
-5.80594e-32
-6.12851e-31
-4.63602e-30
7.7081e-30
-5.72102e-28
-6.94655e-27
-3.98923e-26
3.08647e-25
1.26208e-23
7.94802e-23
-2.05628e-22
-3.37757e-21
-2.05602e-20
-7.6202e-20
-1.27593e-19
1.95265e-19
6.26184e-19
-2.40267e-19
-8.16e-18
-7.47959e-15
-8.07639e-14
-4.8213e-13
-1.9224e-12
6.50098e-11
6.02815e-10
2.78465e-09
8.65221e-09
-1.60788e-07
-1.476e-06
-6.03807e-06
-1.63618e-05
1.09786e-05
0.166698
0.500019
0.833334
0.999995
1
1
1
1
1
1
1
0.999999
0.833344
0.500044
0.166765
5.03793e-05
-0.000120676
-8.40644e-05
-3.60033e-05
-6.67506e-06
8.14919e-07
4.69565e-07
-2.32302e-39
6.32749e-37
1.18073e-35
1.46538e-35
-1.86234e-34
-3.28276e-33
-1.29876e-32
-6.87912e-32