/*--------------------------------*- C++ -*----------------------------------*\
| =========                 |                                                 |
| \\      /  F ield         | OpenFOAM: The Open Source CFD Toolbox           |
|  \\    /   O peration     | Version:  v2106                                 |
|   \\  /    A nd           | Website:  www.openfoam.com                      |
|    \\/     M anipulation  |                                                 |
\*---------------------------------------------------------------------------*/
FoamFile
{
    version     2.0;
    format      ascii;
    arch        "LSB;label=32;scalar=64";
    class       volScalarField;
    location    "1.3";
    object      T;
}
// * * * * * * * * * * * * * * * * * * * * * * * * * * * * * * * * * * * * * //

dimensions      [ 0 0 0 1 0 0 0 ];

internalField   nonuniform List<scalar> 
400
(
1
1
0.428571
0.047619
-9.32112e-15
-9.30476e-15
-3.97125e-15
-6.63228e-16
5.02404e-19
5.02404e-19
5.02404e-19
5.02404e-19
2.14668e-19
3.52361e-20
-8.68473e-22
-8.68473e-22
-8.68473e-22
-8.68461e-22
-3.70553e-22
-3.97578e-23
1
1
0.952381
0.515873
0.14881
1.72342e-12
-2.52464e-13
-1.74918e-13
-1.03806e-13
-5.55442e-14
-2.55718e-14
-5.52029e-15
1.14687e-17
1.11518e-17
1.071e-17
6.07307e-18
2.61764e-18
7.85056e-19
-1.37689e-20
-6.66187e-21
0.428571
0.952381
0.952381
0.884921
0.548993
0.182998
3.15539e-12
-5.77644e-13
-4.31682e-13
-3.09887e-13
-1.95623e-13
-9.65677e-14
-3.53787e-14
-3.31888e-15
-7.07578e-16
8.62658e-17
8.15651e-17
4.26045e-17
1.29101e-17
-8.44792e-20
0.047619
0.515873
0.884921
0.884921
0.83959
0.577732
0.192577
5.60813e-11
-6.63053e-12
-4.16184e-12
-2.14482e-12
-9.60636e-13
-3.67885e-13
-6.75996e-14
-8.55007e-15
-2.98289e-15
-2.61312e-16
2.71636e-16
1.56674e-16
4.08949e-17
-4.74982e-17
0.14881
0.548993
0.83959
0.839745
0.818194
0.589886
0.196629
2.72213e-10
-5.2742e-11
-3.21466e-11
-1.52994e-11
-5.87985e-12
-1.12759e-12
-7.99364e-14
-3.71863e-14
-1.48663e-14
-2.79649e-15
8.83471e-16
4.22691e-16
-2.84617e-17
3.29726e-13
0.182998
0.577732
0.818194
0.818202
0.808314
0.595383
0.198461
1.49457e-09
-3.07649e-10
-1.87149e-10
-8.76493e-11
-3.13992e-11
-2.54535e-12
-3.57755e-13
-1.66221e-13
-6.60286e-14
-8.98308e-15
1.90828e-15
-1.14323e-17
-1.58365e-17
5.00122e-12
0.192577
0.589886
0.808314
0.808318
0.803798
0.597891
0.199297
9.58792e-09
-1.41606e-09
-8.63515e-10
-4.02272e-10
-1.37528e-10
-3.43185e-12
-1.36749e-12
-6.38746e-13
-2.59625e-13
-2.97535e-14
-9.33809e-19
-7.97675e-18
-1.38895e-13
3.99957e-11
0.196629
0.595383
0.803798
0.803801
0.801735
0.599036
0.199679
7.30721e-08
-5.36006e-09
-3.27972e-09
-1.52231e-09
-4.82092e-10
-9.67991e-12
-4.94048e-12
-2.44668e-12
-6.39553e-13
-8.35736e-25
-1.98149e-18
-8.31687e-14
-3.14643e-12
2.57615e-10
0.198461
0.597891
0.801735
0.801737
0.800793
0.59956
0.199852
6.48351e-07
-1.71637e-08
-1.05406e-08
-4.85423e-09
-1.43892e-09
-3.5738e-11
-1.8029e-11
-6.08254e-12
-1.17918e-24
-4.09183e-21
-3.85355e-14
-1.89045e-12
-3.53456e-11
1.65233e-09
0.199297
0.599036
0.800793
0.800794
0.800363
0.599798
0.199927
6.36139e-06
-4.75437e-08
-2.92952e-08
-1.33753e-08
-3.5436e-09
-3.57477e-10
-1.58084e-11
-2.60323e-24
-4.27907e-21
-1.20742e-14
-8.7425e-13
-2.13156e-11
-2.75472e-10
1.14813e-08
0.199679
0.59956
0.800363
0.800363
0.800165
0.599878
0.200007
6.35562e-05
-1.16751e-07
-7.21729e-08
-3.24813e-08
-9.34329e-09
-3.68481e-11
-1.02568e-21
5.06676e-19
-4.00627e-15
-2.73245e-13
-9.84361e-12
-1.66686e-10
-1.71561e-09
8.44964e-08
0.199852
0.599798
0.800165
0.800164
0.800054
0.599847
0.200213
0.000293339
-2.6375e-07
-1.63353e-07
-7.41302e-08
-1.18359e-08
-8.583e-21
4.87178e-19
4.72913e-17
-8.74467e-14
-3.07185e-12
-7.68996e-11
-1.04083e-09
-9.02685e-09
7.00479e-07
0.199927
0.599878
0.800054
0.800049
0.799926
0.599638
0.200721
0.000874451
-5.75419e-07
-3.65398e-07
-1.08163e-07
-3.81691e-20
4.2089e-19
3.54159e-17
5.81931e-15
-9.43542e-13
-2.39563e-11
-4.79758e-10
-5.48845e-09
-4.06447e-08
6.58547e-06
0.200008
0.599846
0.799925
0.7999
0.799625
0.599156
0.201816
0.00209164
-1.28353e-06
-6.35702e-07
-7.84682e-20
3.41846e-19
2.49377e-17
3.62409e-15
1.25112e-13
-7.06295e-12
-1.49835e-10
-2.52836e-09
-2.47692e-08
-1.5643e-07
6.47216e-05
0.200216
0.599636
0.799622
0.799549
0.798932
0.598295
0.203789
0.00422275
-2.25576e-06
-9.0807e-20
2.94348e-19
1.82823e-17
1.84382e-15
7.69744e-14
1.42752e-12
-4.24819e-11
-8.67722e-10
-1.14819e-08
-9.56443e-08
-5.14098e-07
0.000296754
0.200728
0.599152
0.798927
0.798755
0.797546
0.597266
0.206026
0.0041189
-9.07192e-20
2.51035e-19
1.44516e-17
8.25746e-16
3.78469e-14
8.84241e-13
1.28672e-11
-1.28115e-10
-3.94521e-09
-4.43727e-08
-3.15437e-07
-1.44836e-06
0.000882219
0.20183
0.598289
0.797538
0.79719
0.795289
0.598743
0.13903
-9.06352e-20
1.72463e-19
1.1932e-17
3.87473e-16
1.51719e-14
4.3554e-13
8.21335e-12
8.0239e-11
-2.05753e-10
-1.4786e-08
-1.4603e-07
-8.92112e-07
-3.5278e-06
0.00210642
0.203815
0.59726
0.795279
0.794672
0.792828
0.453861
-9.06905e-20
1.07094e-19
1.01906e-17
2.33793e-16
6.59562e-15
1.82153e-13
4.16279e-12
5.01693e-11
2.1789e-10
3.34807e-10
-4.47609e-08
-4.09334e-07
-2.22458e-06
-7.70204e-06
0.00424499
0.206065
0.598739
0.792823
0.79197
0.699773
-9.67253e-20
-5.4334e-20
5.59939e-18
1.19268e-16
1.77926e-15
3.59292e-14
1.0489e-12
1.62647e-11
1.51913e-10
3.26946e-10
1.1222e-09
-6.7887e-08
-6.64463e-07
-3.80554e-06
-1.17535e-05
0.00413406
0.139051
0.453872
0.699774
0.69793
)
;

boundaryField
{
    left
    {
        type            fixedValue;
        value           nonuniform List<scalar> 
60
(
1
1
1
1
1
1
0
0
0
0
0
0
0
0
0
0
0
0
0
0
0
0
0
0
0
0
0
0
0
0
0
0
0
0
0
0
0
0
0
0
0
0
0
0
0
0
0
0
0
0
0
0
0
0
0
0
0
0
0
0
)
;
    }
    right
    {
        type            zeroGradient;
    }
    bottom
    {
        type            fixedValue;
        value           nonuniform List<scalar> 
60
(
1
1
1
1
1
1
0
0
0
0
0
0
0
0
0
0
0
0
0
0
0
0
0
0
0
0
0
0
0
0
0
0
0
0
0
0
0
0
0
0
0
0
0
0
0
0
0
0
0
0
0
0
0
0
0
0
0
0
0
0
)
;
    }
    top
    {
        type            zeroGradient;
    }
    frontAndBack
    {
        type            empty;
    }
}


// ************************************************************************* //
