/*--------------------------------*- C++ -*----------------------------------*\
| =========                 |                                                 |
| \\      /  F ield         | OpenFOAM: The Open Source CFD Toolbox           |
|  \\    /   O peration     | Version:  v2106                                 |
|   \\  /    A nd           | Website:  www.openfoam.com                      |
|    \\/     M anipulation  |                                                 |
\*---------------------------------------------------------------------------*/
FoamFile
{
    version     2.0;
    format      ascii;
    arch        "LSB;label=32;scalar=64";
    class       volVectorField;
    location    "0.9";
    object      flux;
}
// * * * * * * * * * * * * * * * * * * * * * * * * * * * * * * * * * * * * * //

dimensions      [0 1 -1 1 0 0 0];

internalField   nonuniform List<vector> 
20
(
(-3.00362 0 0)
(-3.00355 0 0)
(-3.00338 0 0)
(-3.00312 0 0)
(-3.00279 0 0)
(-3.00238 0 0)
(-3.00192 0 0)
(-3.0014 0 0)
(-3.00086 0 0)
(-3.00029 0 0)
(-2.99972 0 0)
(-2.99915 0 0)
(-2.9986 0 0)
(-2.99809 0 0)
(-2.99762 0 0)
(-2.99722 0 0)
(-2.99688 0 0)
(-2.99662 0 0)
(-2.99644 0 0)
(-2.99635 0 0)
)
;

boundaryField
{
    left
    {
        type            calculated;
        value           uniform (-3.00364 0 0);
    }
    right
    {
        type            calculated;
        value           uniform (-2.99633 0 0);
    }
    frontAndBack
    {
        type            empty;
    }
}


// ************************************************************************* //
