/*--------------------------------*- C++ -*----------------------------------*\
| =========                 |                                                 |
| \\      /  F ield         | OpenFOAM: The Open Source CFD Toolbox           |
|  \\    /   O peration     | Version:  v2106                                 |
|   \\  /    A nd           | Website:  www.openfoam.com                      |
|    \\/     M anipulation  |                                                 |
\*---------------------------------------------------------------------------*/
FoamFile
{
    version     2.0;
    format      ascii;
    arch        "LSB;label=32;scalar=64";
    class       volScalarField;
    location    "0.9";
    object      gradTx;
}
// * * * * * * * * * * * * * * * * * * * * * * * * * * * * * * * * * * * * * //

dimensions      [0 -1 0 1 0 0 0];

internalField   nonuniform List<scalar> 
20
(
-3.00362
-3.00355
-3.00338
-3.00312
-3.00279
-3.00238
-3.00192
-3.0014
-3.00086
-3.00029
-2.99972
-2.99915
-2.9986
-2.99809
-2.99762
-2.99722
-2.99688
-2.99662
-2.99644
-2.99635
)
;

boundaryField
{
    left
    {
        type            calculated;
        value           uniform -3.00364;
    }
    right
    {
        type            calculated;
        value           uniform -2.99633;
    }
    frontAndBack
    {
        type            empty;
    }
}


// ************************************************************************* //
