/*--------------------------------*- C++ -*----------------------------------*\
| =========                 |                                                 |
| \\      /  F ield         | OpenFOAM: The Open Source CFD Toolbox           |
|  \\    /   O peration     | Version:  v2106                                 |
|   \\  /    A nd           | Website:  www.openfoam.com                      |
|    \\/     M anipulation  |                                                 |
\*---------------------------------------------------------------------------*/
FoamFile
{
    version     2.0;
    format      ascii;
    arch        "LSB;label=32;scalar=64";
    class       volScalarField;
    location    "0.7";
    object      gradTx;
}
// * * * * * * * * * * * * * * * * * * * * * * * * * * * * * * * * * * * * * //

dimensions      [0 -1 0 1 0 0 0];

internalField   nonuniform List<scalar> 
20
(
-3.0136
-3.01329
-3.01264
-3.01167
-3.0104
-3.00889
-3.00715
-3.00524
-3.0032
-3.00108
-2.99893
-2.99681
-2.99477
-2.99286
-2.99112
-2.9896
-2.98834
-2.98736
-2.9867
-2.98637
)
;

boundaryField
{
    left
    {
        type            calculated;
        value           uniform -3.01367;
    }
    right
    {
        type            calculated;
        value           uniform -2.98628;
    }
    frontAndBack
    {
        type            empty;
    }
}


// ************************************************************************* //
