/*--------------------------------*- C++ -*----------------------------------*\
| =========                 |                                                 |
| \\      /  F ield         | OpenFOAM: The Open Source CFD Toolbox           |
|  \\    /   O peration     | Version:  v2106                                 |
|   \\  /    A nd           | Website:  www.openfoam.com                      |
|    \\/     M anipulation  |                                                 |
\*---------------------------------------------------------------------------*/
FoamFile
{
    version     2.0;
    format      ascii;
    arch        "LSB;label=32;scalar=64";
    class       volVectorField;
    location    "0.3";
    object      flux;
}
// * * * * * * * * * * * * * * * * * * * * * * * * * * * * * * * * * * * * * //

dimensions      [0 1 -1 1 0 0 0];

internalField   nonuniform List<vector> 
20
(
(-3.55734 0 0)
(-3.54363 0 0)
(-3.51652 0 0)
(-3.47667 0 0)
(-3.42508 0 0)
(-3.36302 0 0)
(-3.29202 0 0)
(-3.21383 0 0)
(-3.13038 0 0)
(-3.04374 0 0)
(-2.95602 0 0)
(-2.8694 0 0)
(-2.786 0 0)
(-2.70788 0 0)
(-2.63695 0 0)
(-2.57497 0 0)
(-2.52345 0 0)
(-2.48366 0 0)
(-2.45658 0 0)
(-2.44287 0 0)
)
;

boundaryField
{
    left
    {
        type            calculated;
        value           uniform (-3.56079 0 0);
    }
    right
    {
        type            calculated;
        value           uniform (-2.43942 0 0);
    }
    frontAndBack
    {
        type            empty;
    }
}


// ************************************************************************* //
