/*--------------------------------*- C++ -*----------------------------------*\
| =========                 |                                                 |
| \\      /  F ield         | OpenFOAM: The Open Source CFD Toolbox           |
|  \\    /   O peration     | Version:  v2106                                 |
|   \\  /    A nd           | Website:  www.openfoam.com                      |
|    \\/     M anipulation  |                                                 |
\*---------------------------------------------------------------------------*/
FoamFile
{
    version     2.0;
    format      ascii;
    arch        "LSB;label=32;scalar=64";
    class       volVectorField;
    location    "0.6";
    object      flux;
}
// * * * * * * * * * * * * * * * * * * * * * * * * * * * * * * * * * * * * * //

dimensions      [0 1 -1 1 0 0 0];

internalField   nonuniform List<vector> 
20
(
(-3.03274 0 0)
(-3.03195 0 0)
(-3.03037 0 0)
(-3.02803 0 0)
(-3.025 0 0)
(-3.02135 0 0)
(-3.01718 0 0)
(-3.01258 0 0)
(-3.00768 0 0)
(-3.00258 0 0)
(-2.99742 0 0)
(-2.99233 0 0)
(-2.98742 0 0)
(-2.98283 0 0)
(-2.97865 0 0)
(-2.97501 0 0)
(-2.97198 0 0)
(-2.96963 0 0)
(-2.96804 0 0)
(-2.96723 0 0)
)
;

boundaryField
{
    left
    {
        type            calculated;
        value           uniform (-3.03293 0 0);
    }
    right
    {
        type            calculated;
        value           uniform (-2.96703 0 0);
    }
    frontAndBack
    {
        type            empty;
    }
}


// ************************************************************************* //
